# vtk DataFile Version 2.0
generated by CFD-lab course output (written by Tobias Neckel) 
ASCII

DATASET STRUCTURED_GRID
DIMENSIONS  51 51 1 
POINTS 2601 float

0.000000 0.000000 0
0.020000 0.000000 0
0.040000 0.000000 0
0.060000 0.000000 0
0.080000 0.000000 0
0.100000 0.000000 0
0.120000 0.000000 0
0.140000 0.000000 0
0.160000 0.000000 0
0.180000 0.000000 0
0.200000 0.000000 0
0.220000 0.000000 0
0.240000 0.000000 0
0.260000 0.000000 0
0.280000 0.000000 0
0.300000 0.000000 0
0.320000 0.000000 0
0.340000 0.000000 0
0.360000 0.000000 0
0.380000 0.000000 0
0.400000 0.000000 0
0.420000 0.000000 0
0.440000 0.000000 0
0.460000 0.000000 0
0.480000 0.000000 0
0.500000 0.000000 0
0.520000 0.000000 0
0.540000 0.000000 0
0.560000 0.000000 0
0.580000 0.000000 0
0.600000 0.000000 0
0.620000 0.000000 0
0.640000 0.000000 0
0.660000 0.000000 0
0.680000 0.000000 0
0.700000 0.000000 0
0.720000 0.000000 0
0.740000 0.000000 0
0.760000 0.000000 0
0.780000 0.000000 0
0.800000 0.000000 0
0.820000 0.000000 0
0.840000 0.000000 0
0.860000 0.000000 0
0.880000 0.000000 0
0.900000 0.000000 0
0.920000 0.000000 0
0.940000 0.000000 0
0.960000 0.000000 0
0.980000 0.000000 0
1.000000 0.000000 0
0.000000 0.020000 0
0.020000 0.020000 0
0.040000 0.020000 0
0.060000 0.020000 0
0.080000 0.020000 0
0.100000 0.020000 0
0.120000 0.020000 0
0.140000 0.020000 0
0.160000 0.020000 0
0.180000 0.020000 0
0.200000 0.020000 0
0.220000 0.020000 0
0.240000 0.020000 0
0.260000 0.020000 0
0.280000 0.020000 0
0.300000 0.020000 0
0.320000 0.020000 0
0.340000 0.020000 0
0.360000 0.020000 0
0.380000 0.020000 0
0.400000 0.020000 0
0.420000 0.020000 0
0.440000 0.020000 0
0.460000 0.020000 0
0.480000 0.020000 0
0.500000 0.020000 0
0.520000 0.020000 0
0.540000 0.020000 0
0.560000 0.020000 0
0.580000 0.020000 0
0.600000 0.020000 0
0.620000 0.020000 0
0.640000 0.020000 0
0.660000 0.020000 0
0.680000 0.020000 0
0.700000 0.020000 0
0.720000 0.020000 0
0.740000 0.020000 0
0.760000 0.020000 0
0.780000 0.020000 0
0.800000 0.020000 0
0.820000 0.020000 0
0.840000 0.020000 0
0.860000 0.020000 0
0.880000 0.020000 0
0.900000 0.020000 0
0.920000 0.020000 0
0.940000 0.020000 0
0.960000 0.020000 0
0.980000 0.020000 0
1.000000 0.020000 0
0.000000 0.040000 0
0.020000 0.040000 0
0.040000 0.040000 0
0.060000 0.040000 0
0.080000 0.040000 0
0.100000 0.040000 0
0.120000 0.040000 0
0.140000 0.040000 0
0.160000 0.040000 0
0.180000 0.040000 0
0.200000 0.040000 0
0.220000 0.040000 0
0.240000 0.040000 0
0.260000 0.040000 0
0.280000 0.040000 0
0.300000 0.040000 0
0.320000 0.040000 0
0.340000 0.040000 0
0.360000 0.040000 0
0.380000 0.040000 0
0.400000 0.040000 0
0.420000 0.040000 0
0.440000 0.040000 0
0.460000 0.040000 0
0.480000 0.040000 0
0.500000 0.040000 0
0.520000 0.040000 0
0.540000 0.040000 0
0.560000 0.040000 0
0.580000 0.040000 0
0.600000 0.040000 0
0.620000 0.040000 0
0.640000 0.040000 0
0.660000 0.040000 0
0.680000 0.040000 0
0.700000 0.040000 0
0.720000 0.040000 0
0.740000 0.040000 0
0.760000 0.040000 0
0.780000 0.040000 0
0.800000 0.040000 0
0.820000 0.040000 0
0.840000 0.040000 0
0.860000 0.040000 0
0.880000 0.040000 0
0.900000 0.040000 0
0.920000 0.040000 0
0.940000 0.040000 0
0.960000 0.040000 0
0.980000 0.040000 0
1.000000 0.040000 0
0.000000 0.060000 0
0.020000 0.060000 0
0.040000 0.060000 0
0.060000 0.060000 0
0.080000 0.060000 0
0.100000 0.060000 0
0.120000 0.060000 0
0.140000 0.060000 0
0.160000 0.060000 0
0.180000 0.060000 0
0.200000 0.060000 0
0.220000 0.060000 0
0.240000 0.060000 0
0.260000 0.060000 0
0.280000 0.060000 0
0.300000 0.060000 0
0.320000 0.060000 0
0.340000 0.060000 0
0.360000 0.060000 0
0.380000 0.060000 0
0.400000 0.060000 0
0.420000 0.060000 0
0.440000 0.060000 0
0.460000 0.060000 0
0.480000 0.060000 0
0.500000 0.060000 0
0.520000 0.060000 0
0.540000 0.060000 0
0.560000 0.060000 0
0.580000 0.060000 0
0.600000 0.060000 0
0.620000 0.060000 0
0.640000 0.060000 0
0.660000 0.060000 0
0.680000 0.060000 0
0.700000 0.060000 0
0.720000 0.060000 0
0.740000 0.060000 0
0.760000 0.060000 0
0.780000 0.060000 0
0.800000 0.060000 0
0.820000 0.060000 0
0.840000 0.060000 0
0.860000 0.060000 0
0.880000 0.060000 0
0.900000 0.060000 0
0.920000 0.060000 0
0.940000 0.060000 0
0.960000 0.060000 0
0.980000 0.060000 0
1.000000 0.060000 0
0.000000 0.080000 0
0.020000 0.080000 0
0.040000 0.080000 0
0.060000 0.080000 0
0.080000 0.080000 0
0.100000 0.080000 0
0.120000 0.080000 0
0.140000 0.080000 0
0.160000 0.080000 0
0.180000 0.080000 0
0.200000 0.080000 0
0.220000 0.080000 0
0.240000 0.080000 0
0.260000 0.080000 0
0.280000 0.080000 0
0.300000 0.080000 0
0.320000 0.080000 0
0.340000 0.080000 0
0.360000 0.080000 0
0.380000 0.080000 0
0.400000 0.080000 0
0.420000 0.080000 0
0.440000 0.080000 0
0.460000 0.080000 0
0.480000 0.080000 0
0.500000 0.080000 0
0.520000 0.080000 0
0.540000 0.080000 0
0.560000 0.080000 0
0.580000 0.080000 0
0.600000 0.080000 0
0.620000 0.080000 0
0.640000 0.080000 0
0.660000 0.080000 0
0.680000 0.080000 0
0.700000 0.080000 0
0.720000 0.080000 0
0.740000 0.080000 0
0.760000 0.080000 0
0.780000 0.080000 0
0.800000 0.080000 0
0.820000 0.080000 0
0.840000 0.080000 0
0.860000 0.080000 0
0.880000 0.080000 0
0.900000 0.080000 0
0.920000 0.080000 0
0.940000 0.080000 0
0.960000 0.080000 0
0.980000 0.080000 0
1.000000 0.080000 0
0.000000 0.100000 0
0.020000 0.100000 0
0.040000 0.100000 0
0.060000 0.100000 0
0.080000 0.100000 0
0.100000 0.100000 0
0.120000 0.100000 0
0.140000 0.100000 0
0.160000 0.100000 0
0.180000 0.100000 0
0.200000 0.100000 0
0.220000 0.100000 0
0.240000 0.100000 0
0.260000 0.100000 0
0.280000 0.100000 0
0.300000 0.100000 0
0.320000 0.100000 0
0.340000 0.100000 0
0.360000 0.100000 0
0.380000 0.100000 0
0.400000 0.100000 0
0.420000 0.100000 0
0.440000 0.100000 0
0.460000 0.100000 0
0.480000 0.100000 0
0.500000 0.100000 0
0.520000 0.100000 0
0.540000 0.100000 0
0.560000 0.100000 0
0.580000 0.100000 0
0.600000 0.100000 0
0.620000 0.100000 0
0.640000 0.100000 0
0.660000 0.100000 0
0.680000 0.100000 0
0.700000 0.100000 0
0.720000 0.100000 0
0.740000 0.100000 0
0.760000 0.100000 0
0.780000 0.100000 0
0.800000 0.100000 0
0.820000 0.100000 0
0.840000 0.100000 0
0.860000 0.100000 0
0.880000 0.100000 0
0.900000 0.100000 0
0.920000 0.100000 0
0.940000 0.100000 0
0.960000 0.100000 0
0.980000 0.100000 0
1.000000 0.100000 0
0.000000 0.120000 0
0.020000 0.120000 0
0.040000 0.120000 0
0.060000 0.120000 0
0.080000 0.120000 0
0.100000 0.120000 0
0.120000 0.120000 0
0.140000 0.120000 0
0.160000 0.120000 0
0.180000 0.120000 0
0.200000 0.120000 0
0.220000 0.120000 0
0.240000 0.120000 0
0.260000 0.120000 0
0.280000 0.120000 0
0.300000 0.120000 0
0.320000 0.120000 0
0.340000 0.120000 0
0.360000 0.120000 0
0.380000 0.120000 0
0.400000 0.120000 0
0.420000 0.120000 0
0.440000 0.120000 0
0.460000 0.120000 0
0.480000 0.120000 0
0.500000 0.120000 0
0.520000 0.120000 0
0.540000 0.120000 0
0.560000 0.120000 0
0.580000 0.120000 0
0.600000 0.120000 0
0.620000 0.120000 0
0.640000 0.120000 0
0.660000 0.120000 0
0.680000 0.120000 0
0.700000 0.120000 0
0.720000 0.120000 0
0.740000 0.120000 0
0.760000 0.120000 0
0.780000 0.120000 0
0.800000 0.120000 0
0.820000 0.120000 0
0.840000 0.120000 0
0.860000 0.120000 0
0.880000 0.120000 0
0.900000 0.120000 0
0.920000 0.120000 0
0.940000 0.120000 0
0.960000 0.120000 0
0.980000 0.120000 0
1.000000 0.120000 0
0.000000 0.140000 0
0.020000 0.140000 0
0.040000 0.140000 0
0.060000 0.140000 0
0.080000 0.140000 0
0.100000 0.140000 0
0.120000 0.140000 0
0.140000 0.140000 0
0.160000 0.140000 0
0.180000 0.140000 0
0.200000 0.140000 0
0.220000 0.140000 0
0.240000 0.140000 0
0.260000 0.140000 0
0.280000 0.140000 0
0.300000 0.140000 0
0.320000 0.140000 0
0.340000 0.140000 0
0.360000 0.140000 0
0.380000 0.140000 0
0.400000 0.140000 0
0.420000 0.140000 0
0.440000 0.140000 0
0.460000 0.140000 0
0.480000 0.140000 0
0.500000 0.140000 0
0.520000 0.140000 0
0.540000 0.140000 0
0.560000 0.140000 0
0.580000 0.140000 0
0.600000 0.140000 0
0.620000 0.140000 0
0.640000 0.140000 0
0.660000 0.140000 0
0.680000 0.140000 0
0.700000 0.140000 0
0.720000 0.140000 0
0.740000 0.140000 0
0.760000 0.140000 0
0.780000 0.140000 0
0.800000 0.140000 0
0.820000 0.140000 0
0.840000 0.140000 0
0.860000 0.140000 0
0.880000 0.140000 0
0.900000 0.140000 0
0.920000 0.140000 0
0.940000 0.140000 0
0.960000 0.140000 0
0.980000 0.140000 0
1.000000 0.140000 0
0.000000 0.160000 0
0.020000 0.160000 0
0.040000 0.160000 0
0.060000 0.160000 0
0.080000 0.160000 0
0.100000 0.160000 0
0.120000 0.160000 0
0.140000 0.160000 0
0.160000 0.160000 0
0.180000 0.160000 0
0.200000 0.160000 0
0.220000 0.160000 0
0.240000 0.160000 0
0.260000 0.160000 0
0.280000 0.160000 0
0.300000 0.160000 0
0.320000 0.160000 0
0.340000 0.160000 0
0.360000 0.160000 0
0.380000 0.160000 0
0.400000 0.160000 0
0.420000 0.160000 0
0.440000 0.160000 0
0.460000 0.160000 0
0.480000 0.160000 0
0.500000 0.160000 0
0.520000 0.160000 0
0.540000 0.160000 0
0.560000 0.160000 0
0.580000 0.160000 0
0.600000 0.160000 0
0.620000 0.160000 0
0.640000 0.160000 0
0.660000 0.160000 0
0.680000 0.160000 0
0.700000 0.160000 0
0.720000 0.160000 0
0.740000 0.160000 0
0.760000 0.160000 0
0.780000 0.160000 0
0.800000 0.160000 0
0.820000 0.160000 0
0.840000 0.160000 0
0.860000 0.160000 0
0.880000 0.160000 0
0.900000 0.160000 0
0.920000 0.160000 0
0.940000 0.160000 0
0.960000 0.160000 0
0.980000 0.160000 0
1.000000 0.160000 0
0.000000 0.180000 0
0.020000 0.180000 0
0.040000 0.180000 0
0.060000 0.180000 0
0.080000 0.180000 0
0.100000 0.180000 0
0.120000 0.180000 0
0.140000 0.180000 0
0.160000 0.180000 0
0.180000 0.180000 0
0.200000 0.180000 0
0.220000 0.180000 0
0.240000 0.180000 0
0.260000 0.180000 0
0.280000 0.180000 0
0.300000 0.180000 0
0.320000 0.180000 0
0.340000 0.180000 0
0.360000 0.180000 0
0.380000 0.180000 0
0.400000 0.180000 0
0.420000 0.180000 0
0.440000 0.180000 0
0.460000 0.180000 0
0.480000 0.180000 0
0.500000 0.180000 0
0.520000 0.180000 0
0.540000 0.180000 0
0.560000 0.180000 0
0.580000 0.180000 0
0.600000 0.180000 0
0.620000 0.180000 0
[...]
POINT_DATA 2601 

VECTORS velocity float
0.000000 0.000000 0
0.000000 0.000000 0
-0.000000 0.000000 0
-0.000000 0.000000 0
-0.000000 0.000000 0
0.000000 0.000000 0
0.000000 0.000000 0
0.000000 0.000000 0
-0.000000 0.000000 0
-0.000000 0.000000 0
-0.000000 0.000000 0
-0.000000 0.000000 0
0.000000 0.000000 0
0.000000 0.000000 0
0.000000 0.000000 0
0.000000 0.000000 0
-0.000000 0.000000 0
-0.000000 0.000000 0
-0.000000 0.000000 0
-0.000000 0.000000 0
-0.000000 0.000000 0
-0.000000 0.000000 0
-0.000000 0.000000 0
-0.000000 0.000000 0
-0.000000 0.000000 0
-0.000000 0.000000 0
-0.000000 0.000000 0
-0.000000 0.000000 0
-0.000000 0.000000 0
-0.000000 0.000000 0
-0.000000 0.000000 0
-0.000000 0.000000 0
-0.000000 0.000000 0
-0.000000 0.000000 0
-0.000000 0.000000 0
-0.000000 0.000000 0
-0.000000 0.000000 0
-0.000000 0.000000 0
-0.000000 0.000000 0
-0.000000 0.000000 0
-0.000000 0.000000 0
0.000000 0.000000 0
0.000000 0.000000 0
0.000000 0.000000 0
0.000000 0.000000 0
0.000000 0.000000 0
0.000000 0.000000 0
0.000000 0.000000 0
0.000000 0.000000 0
-0.000000 0.000000 0
0.000000 0.000000 0
0.000000 0.000000 0
0.000060 -0.000059 0
0.000080 -0.000023 0
-0.000016 0.000055 0
-0.000256 0.000143 0
-0.000644 0.000227 0
-0.001167 0.000300 0
-0.001807 0.000361 0
-0.002544 0.000409 0
-0.003358 0.000446 0
-0.004230 0.000473 0
-0.005141 0.000490 0
-0.006076 0.000499 0
-0.007020 0.000501 0
-0.007959 0.000495 0
-0.008881 0.000483 0
-0.009771 0.000464 0
-0.010619 0.000439 0
-0.011412 0.000407 0
-0.012137 0.000369 0
-0.012781 0.000324 0
-0.013334 0.000273 0
-0.013783 0.000215 0
-0.014117 0.000151 0
-0.014326 0.000082 0
-0.014402 0.000009 0
-0.014340 -0.000067 0
-0.014135 -0.000145 0
-0.013786 -0.000223 0
-0.013296 -0.000299 0
-0.012671 -0.000370 0
-0.011921 -0.000436 0
-0.011058 -0.000493 0
-0.010100 -0.000540 0
-0.009067 -0.000575 0
-0.007982 -0.000597 0
-0.006870 -0.000603 0
-0.005758 -0.000595 0
-0.004673 -0.000571 0
-0.003643 -0.000532 0
-0.002693 -0.000479 0
-0.001847 -0.000414 0
-0.001126 -0.000338 0
-0.000544 -0.000255 0
-0.000112 -0.000167 0
0.000167 -0.000080 0
0.000299 0.000001 0
0.000302 0.000065 0
0.000211 0.000099 0
0.000081 0.000081 0
0.000000 0.000000 0
0.000000 -0.000000 0
0.000023 -0.000080 0
-0.000076 0.000075 0
-0.000386 0.000336 0
-0.000941 0.000628 0
-0.001746 0.000911 0
-0.002783 0.001163 0
-0.004024 0.001377 0
-0.005437 0.001551 0
-0.006986 0.001685 0
-0.008638 0.001783 0
-0.010363 0.001847 0
-0.012130 0.001879 0
-0.013912 0.001883 0
-0.015683 0.001861 0
-0.017417 0.001812 0
-0.019091 0.001738 0
-0.020680 0.001640 0
-0.022162 0.001517 0
-0.023512 0.001370 0
-0.024709 0.001197 0
-0.025730 0.001001 0
-0.026555 0.000783 0
-0.027162 0.000543 0
-0.027536 0.000286 0
-0.027663 0.000014 0
-0.027532 -0.000268 0
-0.027137 -0.000554 0
-0.026478 -0.000838 0
-0.025560 -0.001115 0
-0.024396 -0.001375 0
-0.023002 -0.001613 0
-0.021403 -0.001821 0
-0.019631 -0.001991 0
-0.017721 -0.002118 0
-0.015715 -0.002197 0
-0.013657 -0.002224 0
-0.011596 -0.002197 0
-0.009580 -0.002115 0
-0.007657 -0.001980 0
-0.005874 -0.001796 0
-0.004270 -0.001568 0
-0.002883 -0.001304 0
-0.001739 -0.001014 0
-0.000855 -0.000711 0
-0.000237 -0.000411 0
0.000126 -0.000135 0
0.000263 0.000089 0
0.000228 0.000221 0
0.000101 0.000211 0
0.000000 0.000000 0
0.000000 -0.000001 0
-0.000057 0.000017 0
-0.000349 0.000386 0
-0.000944 0.000921 0
-0.001869 0.001504 0
-0.003122 0.002069 0
-0.004677 0.002578 0
-0.006501 0.003014 0
-0.008550 0.003371 0
-0.010782 0.003648 0
-0.013152 0.003851 0
-0.015617 0.003982 0
-0.018137 0.004048 0
-0.020673 0.004053 0
-0.023189 0.004000 0
-0.025650 0.003890 0
-0.028020 0.003727 0
-0.030266 0.003510 0
-0.032355 0.003240 0
-0.034255 0.002917 0
-0.035933 0.002542 0
-0.037360 0.002118 0
-0.038506 0.001647 0
-0.039346 0.001133 0
-0.039857 0.000583 0
-0.040019 0.000004 0
-0.039822 -0.000593 0
-0.039256 -0.001199 0
-0.038324 -0.001799 0
-0.037033 -0.002381 0
-0.035400 -0.002929 0
-0.033449 -0.003428 0
-0.031215 -0.003864 0
-0.028740 -0.004222 0
-0.026072 -0.004491 0
-0.023267 -0.004660 0
-0.020387 -0.004722 0
-0.017495 -0.004672 0
-0.014657 -0.004510 0
-0.011937 -0.004239 0
-0.009397 -0.003867 0
-0.007093 -0.003405 0
-0.005073 -0.002870 0
-0.003373 -0.002282 0
-0.002018 -0.001668 0
-0.001014 -0.001061 0
-0.000350 -0.000500 0
0.000008 -0.000037 0
0.000120 0.000261 0
0.000075 0.000310 0
0.000000 0.000000 0
0.000000 -0.000000 0
-0.000153 0.000269 0
-0.000673 0.000963 0
-0.001595 0.001857 0
-0.002924 0.002806 0
-0.004646 0.003718 0
-0.006727 0.004542 0
-0.009124 0.005250 0
-0.011787 0.005833 0
-0.014665 0.006287 0
-0.017705 0.006618 0
-0.020856 0.006832 0
-0.024069 0.006936 0
-0.027295 0.006935 0
-0.030489 0.006836 0
-0.033608 0.006642 0
-0.036606 0.006355 0
-0.039444 0.005976 0
-0.042078 0.005506 0
-0.044469 0.004948 0
-0.046578 0.004303 0
-0.048366 0.003574 0
-0.049799 0.002769 0
-0.050845 0.001893 0
-0.051477 0.000959 0
-0.051674 -0.000021 0
-0.051420 -0.001031 0
-0.050708 -0.002051 0
-0.049538 -0.003062 0
-0.047923 -0.004039 0
-0.045882 -0.004959 0
-0.043446 -0.005797 0
-0.040657 -0.006530 0
-0.037564 -0.007135 0
-0.034227 -0.007591 0
-0.030715 -0.007882 0
-0.027099 -0.007996 0
-0.023459 -0.007927 0
-0.019872 -0.007673 0
-0.016418 -0.007240 0
-0.013171 -0.006639 0
-0.010199 -0.005892 0
-0.007560 -0.005024 0
-0.005302 -0.004069 0
-0.003453 -0.003070 0
-0.002027 -0.002079 0
-0.001012 -0.001157 0
-0.000377 -0.000381 0
-0.000061 0.000154 0
0.000025 0.000331 0
0.000000 0.000000 0
0.000000 -0.000000 0
-0.000253 0.000690 0
-0.001014 0.001828 0
-0.002281 0.003171 0
-0.004033 0.004555 0
-0.006237 0.005871 0
-0.008847 0.007056 0
-0.011812 0.008075 0
-0.015073 0.008913 0
-0.018571 0.009567 0
-0.022247 0.010042 0
-0.026043 0.010345 0
-0.029901 0.010486 0
-0.033767 0.010473 0
-0.037588 0.010312 0
-0.041312 0.010008 0
-0.044888 0.009564 0
-0.048268 0.008982 0
-0.051402 0.008266 0
-0.054243 0.007416 0
-0.056746 0.006439 0
-0.058868 0.005339 0
-0.060567 0.004126 0
-0.061808 0.002811 0
-0.062560 0.001412 0
-0.062798 -0.000053 0
-0.062505 -0.001560 0
-0.061674 -0.003080 0
-0.060305 -0.004584 0
-0.058412 -0.006037 0
-0.056017 -0.007406 0
-0.053155 -0.008654 0
-0.049874 -0.009747 0
-0.046231 -0.010652 0
-0.042293 -0.011340 0
-0.038137 -0.011788 0
-0.033847 -0.011978 0
-0.029513 -0.011899 0
-0.025224 -0.011551 0
-0.021072 -0.010940 0
-0.017142 -0.010086 0
-0.013515 -0.009015 0
-0.010260 -0.007766 0
-0.007432 -0.006389 0
-0.005068 -0.004944 0
-0.003188 -0.003502 0
-0.001786 -0.002150 0
-0.000835 -0.000989 0
-0.000279 -0.000141 0
-0.000037 0.000249 0
0.000000 0.000000 0
0.000000 0.000000 0
-0.000350 0.001283 0
-0.001356 0.002991 0
-0.002973 0.004875 0
-0.005153 0.006761 0
-0.007843 0.008532 0
-0.010982 0.010117 0
-0.014506 0.011477 0
-0.018351 0.012592 0
-0.022449 0.013462 0
-0.026735 0.014089 0
-0.031143 0.014485 0
-0.035611 0.014660 0
-0.040079 0.014622 0
-0.044487 0.014381 0
-0.048777 0.013943 0
-0.052893 0.013311 0
-0.056779 0.012489 0
-0.060381 0.011482 0
-0.063646 0.010292 0
-0.066522 0.008927 0
-0.068962 0.007395 0
-0.070921 0.005709 0
-0.072357 0.003886 0
-0.073238 0.001949 0
-0.073535 -0.000075 0
-0.073229 -0.002155 0
-0.072311 -0.004251 0
-0.070783 -0.006324 0
-0.068656 -0.008328 0
-0.065956 -0.010216 0
-0.062721 -0.011940 0
-0.059001 -0.013455 0
-0.054859 -0.014716 0
-0.050370 -0.015684 0
-0.045617 -0.016327 0
-0.040693 -0.016621 0
-0.035698 -0.016550 0
-0.030732 -0.016114 0
-0.025898 -0.015321 0
-0.021293 -0.014196 0
-0.017009 -0.012774 0
-0.013126 -0.011108 0
-0.009709 -0.009261 0
-0.006806 -0.007314 0
-0.004444 -0.005360 0
-0.002627 -0.003510 0
-0.001332 -0.001889 0
-0.000514 -0.000645 0
-0.000101 0.000052 0
0.000000 0.000000 0
0.000000 0.000000 0
-0.000444 0.002046 0
-0.001689 0.004450 0
-0.003652 0.006968 0
-0.006258 0.009424 0
-0.009430 0.011700 0
-0.013091 0.013720 0
-0.017167 0.015445 0
-0.021582 0.016855 0
-0.026261 0.017950 0
-0.031133 0.018735 0
-0.036128 0.019222 0
-0.041178 0.019423 0
-0.046218 0.019349 0
-0.051183 0.019010 0
-0.056010 0.018414 0
-0.060638 0.017566 0
-0.065007 0.016470 0
-0.069057 0.015132 0
-0.072731 0.013558 0
-0.075972 0.011755 0
-0.078728 0.009737 0
-0.080951 0.007521 0
-0.082595 0.005129 0
-0.083623 0.002589 0
-0.084004 -0.000062 0
-0.083717 -0.002783 0
-0.082751 -0.005527 0
-0.081104 -0.008239 0
-0.078789 -0.010864 0
-0.075831 -0.013341 0
-0.072270 -0.015609 0
-0.068157 -0.017608 0
-0.063560 -0.019283 0
-0.058557 -0.020583 0
-0.053239 -0.021465 0
-0.047706 -0.021897 0
-0.042067 -0.021861 0
-0.036433 -0.021351 0
-0.030917 -0.020379 0
-0.025629 -0.018974 0
-0.020673 -0.017182 0
-0.016141 -0.015066 0
-0.012110 -0.012709 0
-0.008641 -0.010208 0
-0.005769 -0.007681 0
-0.003510 -0.005262 0
-0.001852 -0.003101 0
-0.000757 -0.001371 0
-0.000166 -0.000265 0
0.000000 0.000000 0
0.000000 0.000000 0
-0.000534 0.002972 0
-0.002010 0.006199 0
-0.004311 0.009444 0
-0.007332 0.012538 0
-0.010977 0.015366 0
-0.015150 0.017855 0
-0.019764 0.019967 0
-0.024733 0.021686 0
-0.029976 0.023013 0
-0.035414 0.023956 0
-0.040974 0.024530 0
-0.046583 0.024749 0
-0.052171 0.024627 0
-0.057669 0.024174 0
-0.063013 0.023398 0
-0.068135 0.022308 0
-0.072972 0.020908 0
-0.077459 0.019205 0
-0.081537 0.017207 0
-0.085144 0.014925 0
-0.088224 0.012373 0
-0.090725 0.009575 0
-0.092597 0.006558 0
-0.093800 0.003358 0
-0.094300 0.000019 0
-0.094071 -0.003408 0
-0.093098 -0.006865 0
-0.091379 -0.010285 0
-0.088924 -0.013600 0
-0.085756 -0.016735 0
-0.081914 -0.019614 0
-0.077450 -0.022165 0
-0.072434 -0.024317 0
-0.066948 -0.026006 0
-0.061087 -0.027178 0
-0.054960 -0.027793 0
-0.048682 -0.027824 0
-0.042376 -0.027264 0
-0.036166 -0.026125 0
-0.030176 -0.024440 0
-0.024523 -0.022262 0
-0.019312 -0.019670 0
-0.014636 -0.016761 0
-0.010567 -0.013655 0
-0.007157 -0.010491 0
-0.004430 -0.007427 0
-0.002388 -0.004642 0
-0.001004 -0.002330 0
-0.000231 -0.000705 0
0.000000 0.000000 0
0.000000 -0.000000 0
-0.000620 0.004055 0
-0.002316 0.008226 0
-0.004942 0.012291 0
-0.008366 0.016091 0
-0.012468 0.019517 0
-0.017138 0.022507 0
-0.022274 0.025027 0
-0.027780 0.027067 0
-0.033568 0.028631 0
-0.039553 0.029733 0
-0.045658 0.030390 0
-0.051805 0.030619 0
-0.057921 0.030436 0
-0.063936 0.029852 0
-0.069780 0.028879 0
-0.075384 0.027525 0
-0.080681 0.025795 0
-0.085604 0.023698 0
-0.090088 0.021242 0
-0.094070 0.018443 0
-0.097490 0.015318 0
-0.100291 0.011894 0
-0.102421 0.008204 0
-0.103834 0.004292 0
-0.104492 0.000208 0
-0.104366 -0.003985 0
-0.103436 -0.008218 0
-0.101696 -0.012413 0
-0.099151 -0.016487 0
-0.095822 -0.020351 0
-0.091745 -0.023915 0
-0.086972 -0.027088 0
-0.081572 -0.029786 0
-0.075629 -0.031929 0
-0.069244 -0.033452 0
-0.062530 -0.034302 0
-0.055611 -0.034445 0
-0.048621 -0.033867 0
-0.041697 -0.032579 0
-0.034976 -0.030618 0
-0.028590 -0.028047 0
-0.022663 -0.024953 0
-0.017302 -0.021454 0
-0.012596 -0.017688 0
-0.008612 -0.013818 0
-0.005389 -0.010030 0
-0.002942 -0.006527 0
-0.001257 -0.003528 0
-0.000296 -0.001270 0
0.000000 0.000000 0
0.000000 -0.000000 0
-0.000701 0.005288 0
-0.002606 0.010521 0
-0.005543 0.015495 0
-0.009353 0.020065 0
-0.013895 0.024138 0
-0.019042 0.027660 0
-0.024680 0.030608 0
-0.030703 0.032979 0
-0.037015 0.034786 0
-0.043527 0.036046 0
-0.050157 0.036782 0
-0.056823 0.037013 0
-0.063451 0.036759 0
-0.069968 0.036032 0
-0.076300 0.034846 0
-0.082379 0.033209 0
-0.088132 0.031128 0
-0.093493 0.028612 0
-0.098392 0.025673 0
-0.102764 0.022326 0
-0.106545 0.018594 0
-0.109675 0.014506 0
-0.112098 0.010101 0
-0.113763 0.005430 0
-0.114626 0.000551 0
-0.114654 -0.004464 0
-0.113821 -0.009535 0
-0.112114 -0.014571 0
-0.109535 -0.019474 0
-0.106098 -0.024141 0
-0.101836 -0.028464 0
-0.096797 -0.032338 0
-0.091049 -0.035659 0
-0.084677 -0.038333 0
-0.077783 -0.040277 0
-0.070487 -0.041425 0
-0.062922 -0.041733 0
-0.055230 -0.041178 0
-0.047565 -0.039770 0
-0.040077 -0.037546 0
-0.032918 -0.034575 0
-0.026229 -0.030958 0
-0.020137 -0.026828 0
-0.014749 -0.022345 0
-0.010151 -0.017698 0
-0.006399 -0.013097 0
-0.003522 -0.008774 0
-0.001519 -0.004976 0
-0.000362 -0.001962 0
0.000000 0.000000 0
0.000000 -0.000000 0
-0.000776 0.006662 0
-0.002880 0.013069 0
-0.006110 0.019038 0
-0.010286 0.024443 0
-0.015247 0.029207 0
-0.020849 0.033292 0
-0.026966 0.036687 0
-0.033483 0.039402 0
-0.040297 0.041456 0
-0.047315 0.042875 0
-0.054448 0.043686 0
-0.061615 0.043914 0
-0.068739 0.043580 0
-0.075743 0.042701 0
-0.082555 0.041290 0
-0.089101 0.039356 0
-0.095312 0.036909 0
-0.101116 0.033957 0
-0.106442 0.030514 0
-0.111223 0.026596 0
-0.115392 0.022229 0
-0.118884 0.017446 0
-0.121638 0.012291 0
-0.123601 0.006820 0
-0.124721 0.001099 0
-0.124959 -0.004790 0
-0.124282 -0.010757 0
-0.122671 -0.016699 0
-0.120118 -0.022503 0
-0.116633 -0.028050 0
-0.112240 -0.033216 0
-0.106983 -0.037875 0
-0.100927 -0.041906 0
-0.094155 -0.045195 0
-0.086771 -0.047642 0
-0.078899 -0.049164 0
-0.070680 -0.049701 0
-0.062269 -0.049223 0
-0.053832 -0.047732 0
-0.045538 -0.045265 0
-0.037558 -0.041895 0
-0.030055 -0.037735 0
-0.023178 -0.032933 0
-0.017056 -0.027674 0
-0.011797 -0.022169 0
-0.007475 -0.016660 0
-0.004136 -0.011407 0
-0.001794 -0.006687 0
-0.000431 -0.002788 0
0.000000 0.000000 0
0.000000 0.000000 0
-0.000847 0.008168 0
-0.003136 0.015856 0
-0.006642 0.022901 0
-0.011161 0.029201 0
-0.016515 0.034700 0
-0.022547 0.039379 0
-0.029117 0.043242 0
-0.036102 0.046311 0
-0.043394 0.048618 0
-0.050892 0.050197 0
-0.058508 0.051083 0
-0.066156 0.051304 0
-0.073757 0.050886 0
-0.081235 0.049848 0
-0.088516 0.048204 0
-0.095526 0.045966 0
-0.102194 0.043142 0
-0.108448 0.039742 0
-0.114215 0.035781 0
-0.119426 0.031276 0
-0.124009 0.026254 0
-0.127898 0.020753 0
-0.131028 0.014819 0
-0.133337 0.008513 0
-0.134770 0.001909 0
-0.135278 -0.004903 0
-0.134821 -0.011823 0
-0.133372 -0.018735 0
-0.130912 -0.025512 0
-0.127443 -0.032019 0
-0.122980 -0.038114 0
-0.117561 -0.043651 0
-0.111243 -0.048488 0
-0.104108 -0.052489 0
-0.096258 -0.055533 0
-0.087821 -0.057516 0
-0.078945 -0.058363 0
-0.069797 -0.058027 0
-0.060557 -0.056502 0
-0.051415 -0.053820 0
-0.042563 -0.050058 0
-0.034189 -0.045339 0
-0.026466 -0.039826 0
-0.019552 -0.033726 0
-0.013576 -0.027279 0
-0.008637 -0.020757 0
-0.004799 -0.014454 0
-0.002091 -0.008681 0
-0.000505 -0.003757 0
0.000000 -0.000000 0
0.000000 0.000000 0
-0.000912 0.009798 0
-0.003373 0.018864 0
-0.007134 0.027062 0
-0.011972 0.034315 0
-0.017693 0.040592 0
-0.024125 0.045893 0
-0.031118 0.050243 0
-0.038543 0.053679 0
-0.046284 0.056246 0
-0.054237 0.057989 0
-0.062309 0.058949 0
-0.070415 0.059163 0
-0.078474 0.058659 0
-0.086411 0.057460 0
-0.094149 0.055582 0
-0.101617 0.053035 0
-0.108742 0.049830 0
-0.115451 0.045978 0
-0.121672 0.041492 0
-0.127331 0.036390 0
-0.132357 0.030702 0
-0.136679 0.024465 0
-0.140226 0.017730 0
-0.142932 0.010562 0
-0.144734 0.003040 0
-0.145576 -0.004738 0
-0.145408 -0.012664 0
-0.144191 -0.020608 0
-0.141898 -0.028432 0
-0.138517 -0.035982 0
-0.134054 -0.043097 0
-0.128536 -0.049612 0
-0.122013 -0.055360 0
-0.114559 -0.060181 0
-0.106277 -0.063929 0
-0.097294 -0.066476 0
-0.087765 -0.067725 0
-0.077867 -0.067612 0
-0.067797 -0.066114 0
-0.057765 -0.063259 0
-0.047988 -0.059121 0
-0.038681 -0.053832 0
-0.030048 -0.047570 0
-0.022274 -0.040564 0
-0.015518 -0.033084 0
-0.009906 -0.025437 0
-0.005522 -0.017953 0
-0.002414 -0.010981 0
-0.000585 -0.004879 0
0.000000 -0.000000 0
0.000000 0.000000 0
-0.000972 0.011542 0
-0.003589 0.022077 0
-0.007583 0.031499 0
-0.012713 0.039759 0
-0.018770 0.046853 0
-0.025571 0.052805 0
-0.032956 0.057661 0
-0.040788 0.061477 0
-0.048945 0.064311 0
-0.057322 0.066222 0
-0.065823 0.067261 0
-0.074361 0.067469 0
-0.082856 0.066882 0
-0.091232 0.065523 0
-0.099413 0.063411 0
-0.107329 0.060559 0
-0.114906 0.056976 0
-0.122073 0.052672 0
-0.128756 0.047661 0
-0.134881 0.041962 0
-0.140374 0.035602 0
-0.145161 0.028621 0
-0.149167 0.021072 0
-0.152319 0.013021 0
-0.154548 0.004554 0
-0.155787 -0.004229 0
-0.155978 -0.013208 0
-0.155069 -0.022245 0
-0.153020 -0.031186 0
-0.149807 -0.039863 0
-0.145423 -0.048094 0
-0.139881 -0.055692 0
-0.133220 -0.062465 0
-0.125506 -0.068225 0
-0.116837 -0.072798 0
-0.107339 -0.076028 0
-0.097170 -0.077790 0
-0.086519 -0.077995 0
-0.075598 -0.076604 0
-0.064638 -0.073629 0
-0.053884 -0.069143 0
-0.043581 -0.063279 0
-0.033966 -0.056233 0
-0.025260 -0.048255 0
-0.017654 -0.039648 0
-0.011304 -0.030754 0
-0.006321 -0.021946 0
-0.002771 -0.013618 0
-0.000674 -0.006170 0
0.000000 -0.000000 0
0.000000 0.000000 0
-0.001025 0.013388 0
-0.003783 0.025475 0
-0.007986 0.036186 0
-0.013379 0.045502 0
-0.019739 0.053449 0
-0.026873 0.060079 0
-0.034614 0.065460 0
-0.042816 0.069669 0
-0.051356 0.072781 0
-0.060122 0.074867 0
-0.069019 0.075988 0
-0.077960 0.076196 0
-0.086863 0.075530 0
-0.095653 0.074017 0
-0.104258 0.071679 0
-0.112607 0.068528 0
-0.120627 0.064574 0
-0.128248 0.059828 0
-0.135397 0.054300 0
-0.141999 0.048009 0
-0.147979 0.040982 0
-0.153258 0.033257 0
-0.157759 0.024888 0
-0.161403 0.015943 0
-0.164113 0.006509 0
-0.165813 -0.003308 0
-0.166433 -0.013382 0
-0.165909 -0.023566 0
-0.164188 -0.033693 0
-0.161230 -0.043580 0
-0.157011 -0.053024 0
-0.151530 -0.061815 0
-0.144812 -0.069734 0
-0.136912 -0.076564 0
-0.127916 -0.082096 0
-0.117949 -0.086143 0
-0.107170 -0.088545 0
-0.095775 -0.089184 0
-0.083992 -0.087995 0
-0.072075 -0.084973 0
-0.060295 -0.080179 0
-0.048934 -0.073749 0
-0.038265 -0.065890 0
-0.028549 -0.056876 0
-0.020015 -0.047041 0
-0.012853 -0.036771 0
-0.007208 -0.026485 0
-0.003170 -0.016628 0
-0.000774 -0.007650 0
0.000000 -0.000000 0
0.000000 0.000000 0
-0.001072 0.015325 0
-0.003953 0.029037 0
-0.008339 0.041094 0
-0.013963 0.051513 0
-0.020591 0.060347 0
-0.028021 0.067680 0
-0.036077 0.073604 0
-0.044610 0.078218 0
-0.053492 0.081617 0
-0.062609 0.083886 0
-0.071865 0.085098 0
-0.081172 0.085313 0
-0.090450 0.084575 0
-0.099626 0.082918 0
-0.108628 0.080365 0
-0.117388 0.076928 0
-0.125835 0.072617 0
-0.133899 0.067442 0
-0.141510 0.061412 0
-0.148592 0.054543 0
-0.155068 0.046861 0
-0.160860 0.038402 0
-0.165885 0.029217 0
-0.170060 0.019375 0
-0.173299 0.008963 0
-0.175519 -0.001909 0
-0.176638 -0.013111 0
-0.176578 -0.024490 0
-0.175271 -0.035866 0
-0.172659 -0.047041 0
-0.168702 -0.057794 0
-0.163380 -0.067891 0
-0.156700 -0.077083 0
-0.148702 -0.085121 0
-0.139459 -0.091761 0
-0.129088 -0.096774 0
-0.117746 -0.099963 0
-0.105635 -0.101173 0
-0.092994 -0.100304 0
-0.080101 -0.097325 0
-0.067257 -0.092284 0
-0.054778 -0.085309 0
-0.042983 -0.076618 0
-0.032175 -0.066506 0
-0.022629 -0.055343 0
-0.014577 -0.043560 0
-0.008200 -0.031629 0
-0.003618 -0.020052 0
-0.000887 -0.009341 0
0.000000 -0.000000 0
0.000000 0.000000 0
-0.001112 0.017340 0
-0.004096 0.032741 0
-0.008638 0.046196 0
-0.014460 0.057755 0
-0.021318 0.067507 0
-0.029001 0.075565 0
-0.037330 0.082050 0
-0.046151 0.087083 0
-0.055330 0.090779 0
-0.064755 0.093240 0
-0.074326 0.094551 0
-0.083959 0.094782 0
-0.093573 0.093984 0
-0.103097 0.092195 0
-0.112463 0.089440 0
-0.121603 0.085734 0
-0.130451 0.081086 0
-0.138938 0.075503 0
-0.146995 0.068992 0
-0.154550 0.061567 0
-0.161524 0.053250 0
-0.167837 0.044074 0
-0.173405 0.034088 0
-0.178140 0.023357 0
-0.181950 0.011968 0
-0.184742 0.000030 0
-0.186423 -0.012324 0
-0.186902 -0.024933 0
-0.186094 -0.037613 0
-0.183925 -0.050149 0
-0.180334 -0.062303 0
-0.175279 -0.073816 0
-0.168748 -0.084412 0
-0.160759 -0.093805 0
-0.151369 -0.101710 0
-0.140681 -0.107856 0
-0.128847 -0.111998 0
-0.116068 -0.113936 0
-0.102595 -0.113529 0
-0.088724 -0.110710 0
-0.074788 -0.105502 0
-0.061143 -0.098023 0
-0.048153 -0.088493 0
-0.036171 -0.077230 0
-0.025525 -0.064639 0
-0.016497 -0.051199 0
-0.009310 -0.037444 0
-0.004122 -0.023941 0
-0.001015 -0.011268 0
0.000000 -0.000000 0
0.000000 0.000000 0
-0.001143 0.019421 0
-0.004212 0.036564 0
-0.008881 0.051458 0
-0.014864 0.064192 0
-0.021910 0.074889 0
-0.029804 0.083692 0
-0.038360 0.090753 0
-0.047419 0.096218 0
-0.056848 0.100221 0
-0.066531 0.102883 0
-0.076371 0.104302 0
-0.086281 0.104559 0
-0.096184 0.103714 0
-0.106012 0.101808 0
-0.115698 0.098870 0