# vtk DataFile Version 2.0
generated by CFD-lab course output (written by Tobias Neckel) 
ASCII

DATASET STRUCTURED_GRID
DIMENSIONS  51 51 1 
POINTS 2601 float

0.000000 0.000000 0
0.020000 0.000000 0
0.040000 0.000000 0
0.060000 0.000000 0
0.080000 0.000000 0
0.100000 0.000000 0
0.120000 0.000000 0
0.140000 0.000000 0
0.160000 0.000000 0
0.180000 0.000000 0
0.200000 0.000000 0
0.220000 0.000000 0
0.240000 0.000000 0
0.260000 0.000000 0
0.280000 0.000000 0
0.300000 0.000000 0
0.320000 0.000000 0
0.340000 0.000000 0
0.360000 0.000000 0
0.380000 0.000000 0
0.400000 0.000000 0
0.420000 0.000000 0
0.440000 0.000000 0
0.460000 0.000000 0
0.480000 0.000000 0
0.500000 0.000000 0
0.520000 0.000000 0
0.540000 0.000000 0
0.560000 0.000000 0
0.580000 0.000000 0
0.600000 0.000000 0
0.620000 0.000000 0
0.640000 0.000000 0
0.660000 0.000000 0
0.680000 0.000000 0
0.700000 0.000000 0
0.720000 0.000000 0
0.740000 0.000000 0
0.760000 0.000000 0
0.780000 0.000000 0
0.800000 0.000000 0
0.820000 0.000000 0
0.840000 0.000000 0
0.860000 0.000000 0
0.880000 0.000000 0
0.900000 0.000000 0
0.920000 0.000000 0
0.940000 0.000000 0
0.960000 0.000000 0
0.980000 0.000000 0
1.000000 0.000000 0
0.000000 0.020000 0
0.020000 0.020000 0
0.040000 0.020000 0
0.060000 0.020000 0
0.080000 0.020000 0
0.100000 0.020000 0
0.120000 0.020000 0
0.140000 0.020000 0
0.160000 0.020000 0
0.180000 0.020000 0
0.200000 0.020000 0
0.220000 0.020000 0
0.240000 0.020000 0
0.260000 0.020000 0
0.280000 0.020000 0
0.300000 0.020000 0
0.320000 0.020000 0
0.340000 0.020000 0
0.360000 0.020000 0
0.380000 0.020000 0
0.400000 0.020000 0
0.420000 0.020000 0
0.440000 0.020000 0
0.460000 0.020000 0
0.480000 0.020000 0
0.500000 0.020000 0
0.520000 0.020000 0
0.540000 0.020000 0
0.560000 0.020000 0
0.580000 0.020000 0
0.600000 0.020000 0
0.620000 0.020000 0
0.640000 0.020000 0
0.660000 0.020000 0
0.680000 0.020000 0
0.700000 0.020000 0
0.720000 0.020000 0
0.740000 0.020000 0
0.760000 0.020000 0
0.780000 0.020000 0
0.800000 0.020000 0
0.820000 0.020000 0
0.840000 0.020000 0
0.860000 0.020000 0
0.880000 0.020000 0
0.900000 0.020000 0
0.920000 0.020000 0
0.940000 0.020000 0
0.960000 0.020000 0
0.980000 0.020000 0
1.000000 0.020000 0
0.000000 0.040000 0
0.020000 0.040000 0
0.040000 0.040000 0
0.060000 0.040000 0
0.080000 0.040000 0
0.100000 0.040000 0
0.120000 0.040000 0
0.140000 0.040000 0
0.160000 0.040000 0
0.180000 0.040000 0
0.200000 0.040000 0
0.220000 0.040000 0
0.240000 0.040000 0
0.260000 0.040000 0
0.280000 0.040000 0
0.300000 0.040000 0
0.320000 0.040000 0
0.340000 0.040000 0
0.360000 0.040000 0
0.380000 0.040000 0
0.400000 0.040000 0
0.420000 0.040000 0
0.440000 0.040000 0
0.460000 0.040000 0
0.480000 0.040000 0
0.500000 0.040000 0
0.520000 0.040000 0
0.540000 0.040000 0
0.560000 0.040000 0
0.580000 0.040000 0
0.600000 0.040000 0
0.620000 0.040000 0
0.640000 0.040000 0
0.660000 0.040000 0
0.680000 0.040000 0
0.700000 0.040000 0
0.720000 0.040000 0
0.740000 0.040000 0
0.760000 0.040000 0
0.780000 0.040000 0
0.800000 0.040000 0
0.820000 0.040000 0
0.840000 0.040000 0
0.860000 0.040000 0
0.880000 0.040000 0
0.900000 0.040000 0
0.920000 0.040000 0
0.940000 0.040000 0
0.960000 0.040000 0
0.980000 0.040000 0
1.000000 0.040000 0
0.000000 0.060000 0
0.020000 0.060000 0
0.040000 0.060000 0
0.060000 0.060000 0
0.080000 0.060000 0
0.100000 0.060000 0
0.120000 0.060000 0
0.140000 0.060000 0
0.160000 0.060000 0
0.180000 0.060000 0
0.200000 0.060000 0
0.220000 0.060000 0
0.240000 0.060000 0
0.260000 0.060000 0
0.280000 0.060000 0
0.300000 0.060000 0
0.320000 0.060000 0
0.340000 0.060000 0
0.360000 0.060000 0
0.380000 0.060000 0
0.400000 0.060000 0
0.420000 0.060000 0
0.440000 0.060000 0
0.460000 0.060000 0
0.480000 0.060000 0
0.500000 0.060000 0
0.520000 0.060000 0
0.540000 0.060000 0
0.560000 0.060000 0
0.580000 0.060000 0
0.600000 0.060000 0
0.620000 0.060000 0
0.640000 0.060000 0
0.660000 0.060000 0
0.680000 0.060000 0
0.700000 0.060000 0
0.720000 0.060000 0
0.740000 0.060000 0
0.760000 0.060000 0
0.780000 0.060000 0
0.800000 0.060000 0
0.820000 0.060000 0
0.840000 0.060000 0
0.860000 0.060000 0
0.880000 0.060000 0
0.900000 0.060000 0
0.920000 0.060000 0
0.940000 0.060000 0
0.960000 0.060000 0
0.980000 0.060000 0
1.000000 0.060000 0
0.000000 0.080000 0
0.020000 0.080000 0
0.040000 0.080000 0
0.060000 0.080000 0
0.080000 0.080000 0
0.100000 0.080000 0
0.120000 0.080000 0
0.140000 0.080000 0
0.160000 0.080000 0
0.180000 0.080000 0
0.200000 0.080000 0
0.220000 0.080000 0
0.240000 0.080000 0
0.260000 0.080000 0
0.280000 0.080000 0
0.300000 0.080000 0
0.320000 0.080000 0
0.340000 0.080000 0
0.360000 0.080000 0
0.380000 0.080000 0
0.400000 0.080000 0
0.420000 0.080000 0
0.440000 0.080000 0
0.460000 0.080000 0
0.480000 0.080000 0
0.500000 0.080000 0
0.520000 0.080000 0
0.540000 0.080000 0
0.560000 0.080000 0
0.580000 0.080000 0
0.600000 0.080000 0
0.620000 0.080000 0
0.640000 0.080000 0
0.660000 0.080000 0
0.680000 0.080000 0
0.700000 0.080000 0
0.720000 0.080000 0
0.740000 0.080000 0
0.760000 0.080000 0
0.780000 0.080000 0
0.800000 0.080000 0
0.820000 0.080000 0
0.840000 0.080000 0
0.860000 0.080000 0
0.880000 0.080000 0
0.900000 0.080000 0
0.920000 0.080000 0
0.940000 0.080000 0
0.960000 0.080000 0
0.980000 0.080000 0
1.000000 0.080000 0
0.000000 0.100000 0
0.020000 0.100000 0
0.040000 0.100000 0
0.060000 0.100000 0
0.080000 0.100000 0
0.100000 0.100000 0
0.120000 0.100000 0
0.140000 0.100000 0
0.160000 0.100000 0
0.180000 0.100000 0
0.200000 0.100000 0
0.220000 0.100000 0
0.240000 0.100000 0
0.260000 0.100000 0
0.280000 0.100000 0
0.300000 0.100000 0
0.320000 0.100000 0
0.340000 0.100000 0
0.360000 0.100000 0
0.380000 0.100000 0
0.400000 0.100000 0
0.420000 0.100000 0
0.440000 0.100000 0
0.460000 0.100000 0
0.480000 0.100000 0
0.500000 0.100000 0
0.520000 0.100000 0
0.540000 0.100000 0
0.560000 0.100000 0
0.580000 0.100000 0
0.600000 0.100000 0
0.620000 0.100000 0
0.640000 0.100000 0
0.660000 0.100000 0
0.680000 0.100000 0
0.700000 0.100000 0
0.720000 0.100000 0
0.740000 0.100000 0
0.760000 0.100000 0
0.780000 0.100000 0
0.800000 0.100000 0
0.820000 0.100000 0
0.840000 0.100000 0
0.860000 0.100000 0
0.880000 0.100000 0
0.900000 0.100000 0
0.920000 0.100000 0
0.940000 0.100000 0
0.960000 0.100000 0
0.980000 0.100000 0
1.000000 0.100000 0
0.000000 0.120000 0
0.020000 0.120000 0
0.040000 0.120000 0
0.060000 0.120000 0
0.080000 0.120000 0
0.100000 0.120000 0
0.120000 0.120000 0
0.140000 0.120000 0
0.160000 0.120000 0
0.180000 0.120000 0
0.200000 0.120000 0
0.220000 0.120000 0
0.240000 0.120000 0
0.260000 0.120000 0
0.280000 0.120000 0
0.300000 0.120000 0
0.320000 0.120000 0
0.340000 0.120000 0
0.360000 0.120000 0
0.380000 0.120000 0
0.400000 0.120000 0
0.420000 0.120000 0
0.440000 0.120000 0
0.460000 0.120000 0
0.480000 0.120000 0
0.500000 0.120000 0
0.520000 0.120000 0
0.540000 0.120000 0
0.560000 0.120000 0
0.580000 0.120000 0
0.600000 0.120000 0
0.620000 0.120000 0
0.640000 0.120000 0
0.660000 0.120000 0
0.680000 0.120000 0
0.700000 0.120000 0
0.720000 0.120000 0
0.740000 0.120000 0
0.760000 0.120000 0
0.780000 0.120000 0
0.800000 0.120000 0
0.820000 0.120000 0
0.840000 0.120000 0
0.860000 0.120000 0
0.880000 0.120000 0
0.900000 0.120000 0
0.920000 0.120000 0
0.940000 0.120000 0
0.960000 0.120000 0
0.980000 0.120000 0
1.000000 0.120000 0
0.000000 0.140000 0
0.020000 0.140000 0
0.040000 0.140000 0
0.060000 0.140000 0
0.080000 0.140000 0
0.100000 0.140000 0
0.120000 0.140000 0
0.140000 0.140000 0
0.160000 0.140000 0
0.180000 0.140000 0
0.200000 0.140000 0
0.220000 0.140000 0
0.240000 0.140000 0
0.260000 0.140000 0
0.280000 0.140000 0
0.300000 0.140000 0
0.320000 0.140000 0
0.340000 0.140000 0
0.360000 0.140000 0
0.380000 0.140000 0
0.400000 0.140000 0
0.420000 0.140000 0
0.440000 0.140000 0
0.460000 0.140000 0
0.480000 0.140000 0
0.500000 0.140000 0
0.520000 0.140000 0
0.540000 0.140000 0
0.560000 0.140000 0
0.580000 0.140000 0
0.600000 0.140000 0
0.620000 0.140000 0
0.640000 0.140000 0
0.660000 0.140000 0
0.680000 0.140000 0
0.700000 0.140000 0
0.720000 0.140000 0
0.740000 0.140000 0
0.760000 0.140000 0
0.780000 0.140000 0
0.800000 0.140000 0
0.820000 0.140000 0
0.840000 0.140000 0
0.860000 0.140000 0
0.880000 0.140000 0
0.900000 0.140000 0
0.920000 0.140000 0
0.940000 0.140000 0
0.960000 0.140000 0
0.980000 0.140000 0
1.000000 0.140000 0
0.000000 0.160000 0
0.020000 0.160000 0
0.040000 0.160000 0
0.060000 0.160000 0
0.080000 0.160000 0
0.100000 0.160000 0
0.120000 0.160000 0
0.140000 0.160000 0
0.160000 0.160000 0
0.180000 0.160000 0
0.200000 0.160000 0
0.220000 0.160000 0
0.240000 0.160000 0
0.260000 0.160000 0
0.280000 0.160000 0
0.300000 0.160000 0
0.320000 0.160000 0
0.340000 0.160000 0
0.360000 0.160000 0
0.380000 0.160000 0
0.400000 0.160000 0
0.420000 0.160000 0
0.440000 0.160000 0
0.460000 0.160000 0
0.480000 0.160000 0
0.500000 0.160000 0
0.520000 0.160000 0
0.540000 0.160000 0
0.560000 0.160000 0
0.580000 0.160000 0
0.600000 0.160000 0
0.620000 0.160000 0
0.640000 0.160000 0
0.660000 0.160000 0
0.680000 0.160000 0
0.700000 0.160000 0
0.720000 0.160000 0
0.740000 0.160000 0
0.760000 0.160000 0
0.780000 0.160000 0
0.800000 0.160000 0
0.820000 0.160000 0
0.840000 0.160000 0
0.860000 0.160000 0
0.880000 0.160000 0
0.900000 0.160000 0
0.920000 0.160000 0
0.940000 0.160000 0
0.960000 0.160000 0
0.980000 0.160000 0
1.000000 0.160000 0
0.000000 0.180000 0
0.020000 0.180000 0
0.040000 0.180000 0
0.060000 0.180000 0
0.080000 0.180000 0
0.100000 0.180000 0
0.120000 0.180000 0
0.140000 0.180000 0
0.160000 0.180000 0
0.180000 0.180000 0
0.200000 0.180000 0
0.220000 0.180000 0
0.240000 0.180000 0
0.260000 0.180000 0
0.280000 0.180000 0
0.300000 0.180000 0
0.320000 0.180000 0
0.340000 0.180000 0
0.360000 0.180000 0
0.380000 0.180000 0
0.400000 0.180000 0
0.420000 0.180000 0
0.440000 0.180000 0
0.460000 0.180000 0
0.480000 0.180000 0
0.500000 0.180000 0
0.520000 0.180000 0
0.540000 0.180000 0
0.560000 0.180000 0
0.580000 0.180000 0
0.600000 0.180000 0
0.620000 0.180000 0
[...]
POINT_DATA 2601 

VECTORS velocity float
0.000000 0.000000 0
-0.000001 0.000000 0
-0.000000 0.000000 0
0.000000 0.000000 0
0.000000 0.000000 0
0.000000 0.000000 0
-0.000000 0.000000 0
-0.000000 0.000000 0
0.000000 0.000000 0
0.000000 0.000000 0
0.000000 0.000000 0
-0.000000 0.000000 0
-0.000000 0.000000 0
-0.000000 0.000000 0
-0.000000 0.000000 0
-0.000000 0.000000 0
0.000000 0.000000 0
0.000000 0.000000 0
0.000000 0.000000 0
-0.000000 0.000000 0
-0.000000 0.000000 0
-0.000000 0.000000 0
-0.000000 0.000000 0
-0.000000 0.000000 0
-0.000000 0.000000 0
-0.000000 0.000000 0
-0.000000 0.000000 0
-0.000000 0.000000 0
-0.000000 0.000000 0
-0.000000 0.000000 0
-0.000000 0.000000 0
-0.000000 0.000000 0
-0.000000 0.000000 0
-0.000000 0.000000 0
-0.000000 0.000000 0
-0.000000 0.000000 0
0.000000 0.000000 0
0.000000 0.000000 0
0.000000 0.000000 0
0.000000 0.000000 0
0.000000 0.000000 0
0.000000 0.000000 0
0.000000 0.000000 0
-0.000000 0.000000 0
-0.000000 0.000000 0
-0.000000 0.000000 0
-0.000000 0.000000 0
0.000000 0.000000 0
0.000000 0.000000 0
0.000000 0.000000 0
0.000000 0.000000 0
0.000000 -0.000001 0
0.000059 -0.000059 0
0.000079 -0.000022 0
-0.000016 0.000055 0
-0.000257 0.000143 0
-0.000643 0.000226 0
-0.001165 0.000299 0
-0.001803 0.000360 0
-0.002538 0.000408 0
-0.003349 0.000445 0
-0.004218 0.000471 0
-0.005126 0.000488 0
-0.006058 0.000497 0
-0.006999 0.000499 0
-0.007935 0.000493 0
-0.008853 0.000481 0
-0.009741 0.000463 0
-0.010586 0.000438 0
-0.011376 0.000406 0
-0.012098 0.000368 0
-0.012741 0.000323 0
-0.013292 0.000272 0
-0.013739 0.000214 0
-0.014072 0.000151 0
-0.014281 0.000082 0
-0.014358 0.000009 0
-0.014296 -0.000067 0
-0.014092 -0.000144 0
-0.013745 -0.000222 0
-0.013258 -0.000297 0
-0.012636 -0.000369 0
-0.011888 -0.000434 0
-0.011029 -0.000491 0
-0.010075 -0.000538 0
-0.009046 -0.000573 0
-0.007964 -0.000594 0
-0.006856 -0.000601 0
-0.005747 -0.000593 0
-0.004666 -0.000569 0
-0.003639 -0.000531 0
-0.002692 -0.000478 0
-0.001848 -0.000413 0
-0.001127 -0.000338 0
-0.000546 -0.000255 0
-0.000115 -0.000167 0
0.000164 -0.000080 0
0.000297 0.000000 0
0.000301 0.000065 0
0.000210 0.000099 0
0.000081 0.000081 0
0.000000 -0.000000 0
0.000000 -0.000000 0
0.000023 -0.000080 0
-0.000076 0.000075 0
-0.000386 0.000336 0
-0.000940 0.000627 0
-0.001743 0.000908 0
-0.002776 0.001160 0
-0.004013 0.001373 0
-0.005421 0.001546 0
-0.006965 0.001680 0
-0.008612 0.001777 0
-0.010331 0.001840 0
-0.012092 0.001872 0
-0.013868 0.001877 0
-0.015632 0.001854 0
-0.017360 0.001806 0
-0.019028 0.001733 0
-0.020612 0.001635 0
-0.022089 0.001512 0
-0.023435 0.001365 0
-0.024629 0.001193 0
-0.025647 0.000998 0
-0.026468 0.000780 0
-0.027075 0.000542 0
-0.027448 0.000286 0
-0.027576 0.000015 0
-0.027446 -0.000266 0
-0.027053 -0.000551 0
-0.026398 -0.000835 0
-0.025485 -0.001110 0
-0.024325 -0.001370 0
-0.022937 -0.001607 0
-0.021345 -0.001814 0
-0.019579 -0.001984 0
-0.017677 -0.002111 0
-0.015677 -0.002190 0
-0.013627 -0.002217 0
-0.011573 -0.002190 0
-0.009563 -0.002109 0
-0.007646 -0.001974 0
-0.005867 -0.001791 0
-0.004267 -0.001564 0
-0.002883 -0.001301 0
-0.001741 -0.001013 0
-0.000859 -0.000711 0
-0.000241 -0.000412 0
0.000122 -0.000136 0
0.000261 0.000087 0
0.000227 0.000219 0
0.000101 0.000210 0
0.000000 0.000000 0
0.000000 0.000000 0
-0.000057 0.000017 0
-0.000349 0.000386 0
-0.000943 0.000918 0
-0.001865 0.001500 0
-0.003113 0.002062 0
-0.004663 0.002570 0
-0.006481 0.003004 0
-0.008523 0.003360 0
-0.010748 0.003636 0
-0.013109 0.003837 0
-0.015566 0.003968 0
-0.018077 0.004034 0
-0.020604 0.004039 0
-0.023111 0.003986 0
-0.025563 0.003877 0
-0.027925 0.003715 0
-0.030163 0.003498 0
-0.032246 0.003229 0
-0.034139 0.002908 0
-0.035813 0.002534 0
-0.037235 0.002112 0
-0.038379 0.001642 0
-0.039217 0.001131 0
-0.039727 0.000583 0
-0.039891 0.000006 0
-0.039695 -0.000589 0
-0.039133 -0.001192 0
-0.038206 -0.001791 0
-0.036921 -0.002370 0
-0.035295 -0.002916 0
-0.033353 -0.003414 0
-0.031128 -0.003849 0
-0.028662 -0.004207 0
-0.026004 -0.004475 0
-0.023209 -0.004644 0
-0.020339 -0.004706 0
-0.017456 -0.004657 0
-0.014627 -0.004496 0
-0.011915 -0.004227 0
-0.009383 -0.003857 0
-0.007085 -0.003397 0
-0.005069 -0.002864 0
-0.003373 -0.002279 0
-0.002020 -0.001667 0
-0.001017 -0.001061 0
-0.000353 -0.000502 0
0.000005 -0.000040 0
0.000118 0.000258 0
0.000075 0.000308 0
0.000000 0.000000 0
0.000000 0.000000 0
-0.000153 0.000269 0
-0.000672 0.000961 0
-0.001590 0.001852 0
-0.002915 0.002797 0
-0.004631 0.003707 0
-0.006704 0.004528 0
-0.009093 0.005233 0
-0.011748 0.005812 0
-0.014616 0.006265 0
-0.017645 0.006595 0
-0.020785 0.006808 0
-0.023985 0.006911 0
-0.027200 0.006911 0
-0.030383 0.006813 0
-0.033490 0.006619 0
-0.036479 0.006333 0
-0.039307 0.005956 0
-0.041933 0.005488 0
-0.044317 0.004932 0
-0.046419 0.004290 0
-0.048202 0.003564 0
-0.049631 0.002762 0
-0.050675 0.001890 0
-0.051307 0.000959 0
-0.051505 -0.000017 0
-0.051254 -0.001023 0
-0.050547 -0.002040 0
-0.049384 -0.003047 0
-0.047776 -0.004021 0
-0.045745 -0.004938 0
-0.043319 -0.005774 0
-0.040541 -0.006505 0
-0.037460 -0.007108 0
-0.034136 -0.007563 0
-0.030636 -0.007855 0
-0.027033 -0.007970 0
-0.023404 -0.007902 0
-0.019829 -0.007650 0
-0.016385 -0.007219 0
-0.013147 -0.006622 0
-0.010182 -0.005878 0
-0.007551 -0.005013 0
-0.005297 -0.004062 0
-0.003452 -0.003067 0
-0.002028 -0.002078 0
-0.001014 -0.001159 0
-0.000379 -0.000385 0
-0.000062 0.000150 0
0.000024 0.000328 0
0.000000 0.000000 0
0.000000 0.000000 0
-0.000252 0.000689 0
-0.001012 0.001824 0
-0.002274 0.003162 0
-0.004019 0.004541 0
-0.006215 0.005852 0
-0.008816 0.007032 0
-0.011770 0.008047 0
-0.015020 0.008881 0
-0.018505 0.009533 0
-0.022168 0.010006 0
-0.025950 0.010309 0
-0.029794 0.010450 0
-0.033646 0.010437 0
-0.037454 0.010276 0
-0.041165 0.009973 0
-0.044729 0.009531 0
-0.048097 0.008952 0
-0.051221 0.008239 0
-0.054054 0.007393 0
-0.056549 0.006420 0
-0.058665 0.005324 0
-0.060360 0.004116 0
-0.061599 0.002807 0
-0.062351 0.001413 0
-0.062591 -0.000047 0
-0.062302 -0.001548 0
-0.061477 -0.003062 0
-0.060116 -0.004561 0
-0.058231 -0.006009 0
-0.055847 -0.007374 0
-0.052998 -0.008618 0
-0.049730 -0.009708 0
-0.046100 -0.010612 0
-0.042177 -0.011299 0
-0.038036 -0.011747 0
-0.033761 -0.011938 0
-0.029441 -0.011861 0
-0.025165 -0.011516 0
-0.021026 -0.010909 0
-0.017107 -0.010059 0
-0.013490 -0.008993 0
-0.010243 -0.007749 0
-0.007421 -0.006377 0
-0.005063 -0.004936 0
-0.003186 -0.003499 0
-0.001786 -0.002151 0
-0.000836 -0.000992 0
-0.000280 -0.000145 0
-0.000037 0.000246 0
0.000000 0.000000 0
0.000000 0.000000 0
-0.000349 0.001280 0
-0.001351 0.002983 0
-0.002962 0.004860 0
-0.005134 0.006739 0
-0.007814 0.008503 0
-0.010942 0.010082 0
-0.014454 0.011436 0
-0.018284 0.012547 0
-0.022367 0.013413 0
-0.026636 0.014039 0
-0.031028 0.014434 0
-0.035480 0.014608 0
-0.039932 0.014571 0
-0.044325 0.014331 0
-0.048600 0.013895 0
-0.052702 0.013266 0
-0.056576 0.012448 0
-0.060166 0.011445 0
-0.063421 0.010260 0
-0.066289 0.008901 0
-0.068723 0.007375 0
-0.070678 0.005696 0
-0.072112 0.003881 0
-0.072993 0.001951 0
-0.073292 -0.000066 0
-0.072991 -0.002137 0
-0.072079 -0.004226 0
-0.070559 -0.006292 0
-0.068443 -0.008289 0
-0.065755 -0.010171 0
-0.062534 -0.011891 0
-0.058829 -0.013402 0
-0.054703 -0.014661 0
-0.050230 -0.015628 0
-0.045494 -0.016271 0
-0.040587 -0.016565 0
-0.035608 -0.016497 0
-0.030657 -0.016065 0
-0.025838 -0.015277 0
-0.021246 -0.014157 0
-0.016974 -0.012742 0
-0.013101 -0.011082 0
-0.009692 -0.009242 0
-0.006796 -0.007302 0
-0.004439 -0.005354 0
-0.002624 -0.003509 0
-0.001332 -0.001891 0
-0.000514 -0.000649 0
-0.000102 0.000048 0
0.000000 0.000000 0
0.000000 -0.000000 0
-0.000443 0.002040 0
-0.001682 0.004437 0
-0.003638 0.006946 0
-0.006234 0.009392 0
-0.009394 0.011659 0
-0.013042 0.013671 0
-0.017102 0.015389 0
-0.021500 0.016795 0
-0.026162 0.017885 0
-0.031016 0.018668 0
-0.035993 0.019153 0
-0.041025 0.019354 0
-0.046046 0.019281 0
-0.050994 0.018944 0
-0.055805 0.018351 0
-0.060418 0.017507 0
-0.064773 0.016416 0
-0.068810 0.015084 0
-0.072473 0.013517 0
-0.075705 0.011722 0
-0.078455 0.009712 0
-0.080673 0.007505 0
-0.082315 0.005122 0
-0.083343 0.002592 0
-0.083727 -0.000049 0
-0.083445 -0.002760 0
-0.082486 -0.005494 0
-0.080848 -0.008197 0
-0.078545 -0.010813 0
-0.075601 -0.013283 0
-0.072054 -0.015545 0
-0.067958 -0.017539 0
-0.063378 -0.019211 0
-0.058393 -0.020509 0
-0.053093 -0.021390 0
-0.047579 -0.021824 0
-0.041958 -0.021791 0
-0.036341 -0.021286 0
-0.030842 -0.020320 0
-0.025569 -0.018922 0
-0.020627 -0.017138 0
-0.016107 -0.015031 0
-0.012087 -0.012682 0
-0.008625 -0.010190 0
-0.005760 -0.007671 0
-0.003505 -0.005258 0
-0.001850 -0.003102 0
-0.000757 -0.001375 0
-0.000166 -0.000269 0
0.000000 0.000000 0
0.000000 0.000000 0
-0.000532 0.002963 0
-0.002001 0.006178 0
-0.004294 0.009412 0
-0.007304 0.012494 0
-0.010934 0.015310 0
-0.015091 0.017790 0
-0.019687 0.019894 0
-0.024637 0.021607 0
-0.029860 0.022930 0
-0.035279 0.023870 0
-0.040819 0.024443 0
-0.046407 0.024662 0
-0.051976 0.024540 0
-0.057456 0.024090 0
-0.062781 0.023318 0
-0.067886 0.022233 0
-0.072708 0.020840 0
-0.077182 0.019145 0
-0.081248 0.017156 0
-0.084846 0.014883 0
-0.087919 0.012342 0
-0.090415 0.009556 0
-0.092285 0.006551 0
-0.093489 0.003363 0
-0.093991 0.000037 0
-0.093767 -0.003378 0
-0.092803 -0.006823 0
-0.091094 -0.010232 0
-0.088651 -0.013537 0
-0.085497 -0.016662 0
-0.081670 -0.019534 0
-0.077225 -0.022079 0
-0.072227 -0.024226 0
-0.066760 -0.025912 0
-0.060920 -0.027084 0
-0.054813 -0.027700 0
-0.048555 -0.027735 0
-0.042268 -0.027181 0
-0.036077 -0.026049 0
-0.030104 -0.024372 0
-0.024466 -0.022204 0
-0.019269 -0.019622 0
-0.014605 -0.016724 0
-0.010546 -0.013629 0
-0.007143 -0.010474 0
-0.004422 -0.007419 0
-0.002384 -0.004640 0
-0.001003 -0.002332 0
-0.000231 -0.000708 0
0.000000 0.000000 0
0.000000 0.000000 0
-0.000617 0.004042 0
-0.002306 0.008198 0
-0.004922 0.012247 0
-0.008333 0.016032 0
-0.012420 0.019446 0
-0.017071 0.022425 0
-0.022187 0.024935 0
-0.027672 0.026968 0
-0.033438 0.028527 0
-0.039401 0.029626 0
-0.045484 0.030281 0
-0.051609 0.030511 0
-0.057705 0.030329 0
-0.063699 0.029749 0
-0.069524 0.028782 0
-0.075110 0.027434 0
-0.080391 0.025712 0
-0.085300 0.023624 0
-0.089772 0.021180 0
-0.093744 0.018393 0
-0.097156 0.015281 0
-0.099952 0.011871 0
-0.102080 0.008196 0
-0.103493 0.004298 0
-0.104154 0.000230 0
-0.104034 -0.003948 0
-0.103112 -0.008167 0
-0.101382 -0.012349 0
-0.098850 -0.016410 0
-0.095536 -0.020263 0
-0.091475 -0.023817 0
-0.086721 -0.026983 0
-0.081341 -0.029675 0
-0.075419 -0.031816 0
-0.069055 -0.033338 0
-0.062362 -0.034189 0
-0.055465 -0.034335 0
-0.048496 -0.033764 0
-0.041592 -0.032484 0
-0.034890 -0.030533 0
-0.028522 -0.027973 0
-0.022610 -0.024892 0
-0.017263 -0.021405 0
-0.012569 -0.017652 0
-0.008594 -0.013794 0
-0.005379 -0.010017 0
-0.002937 -0.006521 0
-0.001255 -0.003528 0
-0.000296 -0.001272 0
0.000000 0.000000 0
0.000000 0.000000 0
-0.000697 0.005269 0
-0.002596 0.010483 0
-0.005521 0.015438 0
-0.009316 0.019991 0
-0.013840 0.024048 0
-0.018967 0.027558 0
-0.024582 0.030495 0
-0.030583 0.032858 0
-0.036872 0.034659 0
-0.043360 0.035916 0
-0.049966 0.036650 0
-0.056609 0.036882 0
-0.063215 0.036630 0
-0.069710 0.035909 0
-0.076023 0.034729 0
-0.082082 0.033100 0
-0.087819 0.031029 0
-0.093165 0.028526 0
-0.098051 0.025600 0
-0.102413 0.022267 0
-0.106187 0.018551 0
-0.109311 0.014479 0
-0.111731 0.010092 0
-0.113396 0.005438 0
-0.114263 0.000577 0
-0.114296 -0.004421 0
-0.113471 -0.009475 0
-0.111776 -0.014495 0
-0.109209 -0.019383 0
-0.105788 -0.024037 0
-0.101543 -0.028349 0
-0.096523 -0.032214 0
-0.090795 -0.035528 0
-0.084444 -0.038198 0
-0.077573 -0.040141 0
-0.070300 -0.041290 0
-0.062757 -0.041601 0
-0.055089 -0.041054 0
-0.047445 -0.039655 0
-0.039978 -0.037442 0
-0.032839 -0.034484 0
-0.026167 -0.030881 0
-0.020090 -0.026766 0
-0.014716 -0.022298 0
-0.010129 -0.017664 0
-0.006385 -0.013076 0
-0.003514 -0.008764 0
-0.001516 -0.004973 0
-0.000361 -0.001963 0
0.000000 0.000000 0
0.000000 0.000000 0
-0.000773 0.006637 0
-0.002869 0.013021 0
-0.006086 0.018967 0
-0.010245 0.024351 0
-0.015186 0.029097 0
-0.020766 0.033168 0
-0.026859 0.036552 0
-0.033352 0.039257 0
-0.040142 0.041305 0
-0.047135 0.042720 0
-0.054243 0.043530 0
-0.061386 0.043760 0
-0.068486 0.043430 0
-0.075468 0.042557 0
-0.082258 0.041154 0
-0.088786 0.039230 0
-0.094979 0.036794 0
-0.100767 0.033857 0
-0.106081 0.030429 0
-0.110851 0.026528 0
-0.115012 0.022179 0
-0.118498 0.017416 0
-0.121250 0.012281 0
-0.123213 0.006830 0
-0.124336 0.001129 0
-0.124579 -0.004740 0
-0.123911 -0.010688 0
-0.122310 -0.016611 0
-0.119770 -0.022398 0
-0.116300 -0.027930 0
-0.111924 -0.033082 0
-0.106687 -0.037730 0
-0.100651 -0.041754 0
-0.093901 -0.045038 0
-0.086541 -0.047482 0
-0.078693 -0.049005 0
-0.070498 -0.049547 0
-0.062111 -0.049076 0
-0.053697 -0.047595 0
-0.045426 -0.045140 0
-0.037467 -0.041784 0
-0.029983 -0.037640 0
-0.023123 -0.032856 0
-0.017017 -0.027613 0
-0.011770 -0.022125 0
-0.007458 -0.016631 0
-0.004127 -0.011391 0
-0.001791 -0.006681 0
-0.000430 -0.002788 0
0.000000 0.000000 0
0.000000 0.000000 0
-0.000844 0.008138 0
-0.003124 0.015796 0
-0.006615 0.022814 0
-0.011116 0.029091 0
-0.016449 0.034570 0
-0.022458 0.039232 0
-0.029003 0.043081 0
-0.035963 0.046141 0
-0.043229 0.048441 0
-0.050701 0.050017 0
-0.058291 0.050902 0
-0.065913 0.051125 0
-0.073490 0.050712 0
-0.080945 0.049681 0
-0.088205 0.048047 0
-0.095196 0.045821 0
-0.101846 0.043011 0
-0.108084 0.039628 0
-0.113838 0.035684 0
-0.119037 0.031199 0
-0.123612 0.026198 0
-0.127496 0.020718 0
-0.130623 0.014806 0
-0.132931 0.008524 0
-0.134367 0.001943 0
-0.134880 -0.004846 0
-0.134431 -0.011744 0
-0.132992 -0.018635 0
-0.130545 -0.025393 0
-0.127091 -0.031883 0
-0.122646 -0.037962 0
-0.117246 -0.043487 0
-0.110949 -0.048314 0
-0.103835 -0.052309 0
-0.096009 -0.055349 0
-0.087597 -0.057333 0
-0.078746 -0.058183 0
-0.069623 -0.057855 0
-0.060408 -0.056340 0
-0.051290 -0.053672 0
-0.042461 -0.049927 0
-0.034107 -0.045225 0
-0.026404 -0.039732 0
-0.019507 -0.033651 0
-0.013545 -0.027223 0
-0.008617 -0.020719 0
-0.004788 -0.014431 0
-0.002086 -0.008670 0
-0.000504 -0.003754 0
0.000000 -0.000000 0
0.000000 -0.000000 0
-0.000909 0.009761 0
-0.003360 0.018792 0
-0.007105 0.026959 0
-0.011924 0.034186 0
-0.017623 0.040439 0
-0.024031 0.045722 0
-0.030999 0.050057 0
-0.038398 0.053483 0
-0.046111 0.056043 0
-0.054037 0.057782 0
-0.062083 0.058742 0
-0.070163 0.058959 0
-0.078198 0.058462 0
-0.086111 0.057271 0
-0.093828 0.055404 0
-0.101275 0.052871 0
-0.108382 0.049683 0
-0.115075 0.045849 0
-0.121282 0.041382 0
-0.126931 0.036303 0
-0.131949 0.030638 0
-0.136264 0.024426 0
-0.139808 0.017716 0
-0.142514 0.010574 0
-0.144318 0.003078 0
-0.145165 -0.004675 0
-0.145004 -0.012576 0
-0.143796 -0.020497 0
-0.141516 -0.028299 0
-0.138149 -0.035829 0
-0.133703 -0.042927 0
-0.128204 -0.049427 0
-0.121702 -0.055164 0
-0.114271 -0.059977 0
-0.106012 -0.063721 0
-0.097054 -0.066268 0
-0.087551 -0.067521 0
-0.077678 -0.067415 0
-0.067634 -0.065928 0
-0.057628 -0.063087 0
-0.047875 -0.058967 0
-0.038590 -0.053697 0
-0.029978 -0.047456 0
-0.022223 -0.040472 0
-0.015483 -0.033015 0
-0.009883 -0.025388 0
-0.005510 -0.017922 0
-0.002408 -0.010965 0
-0.000584 -0.004874 0
0.000000 -0.000000 0
0.000000 -0.000000 0
-0.000969 0.011497 0
-0.003576 0.021992 0
-0.007553 0.031379 0
-0.012664 0.039609 0
-0.018698 0.046676 0
-0.025474 0.052608 0
-0.032833 0.057448 0
-0.040638 0.061253 0
-0.048768 0.064081 0
-0.057117 0.065989 0
-0.065591 0.067028 0
-0.074103 0.067240 0
-0.082573 0.066659 0
-0.090925 0.065311 0
-0.099085 0.063212 0
-0.106981 0.060376 0
-0.114540 0.056811 0
-0.121691 0.052528 0
-0.128360 0.047539 0
-0.134474 0.041865 0
-0.139959 0.035531 0
-0.144740 0.028577 0
-0.148742 0.021056 0
-0.151893 0.013034 0
-0.154124 0.004594 0
-0.155367 -0.004161 0
-0.155565 -0.013112 0
-0.154665 -0.022123 0
-0.152628 -0.031040 0
-0.149428 -0.039695 0
-0.145060 -0.047907 0
-0.139536 -0.055488 0
-0.132895 -0.062247 0
-0.125204 -0.067998 0
-0.116558 -0.072566 0
-0.107084 -0.075795 0
-0.096942 -0.077559 0
-0.086317 -0.077772 0
-0.075422 -0.076391 0
-0.064489 -0.073432 0
-0.053760 -0.068964 0
-0.043481 -0.063122 0
-0.033889 -0.056099 0
-0.025203 -0.048146 0
-0.017614 -0.039563 0
-0.011278 -0.030692 0
-0.006306 -0.021906 0
-0.002765 -0.013596 0
-0.000673 -0.006162 0
0.000000 -0.000000 0
0.000000 -0.000000 0
-0.001022 0.013336 0
-0.003769 0.025377 0
-0.007955 0.036048 0
-0.013328 0.045330 0
-0.019666 0.053249 0
-0.026775 0.059857 0
-0.034489 0.065221 0
-0.042664 0.069417 0
-0.051176 0.072522 0
-0.059915 0.074606 0
-0.068785 0.075728 0
-0.077699 0.075941 0
-0.086578 0.075283 0
-0.095345 0.073783 0
-0.103928 0.071459 0
-0.112256 0.068326 0
-0.120259 0.064393 0
-0.127865 0.059669 0
-0.135000 0.054166 0
-0.141591 0.047902 0
-0.147562 0.040903 0
-0.152835 0.033208 0
-0.157333 0.024870 0
-0.160975 0.015956 0
-0.163686 0.006552 0
-0.165390 -0.003234 0
-0.166016 -0.013279 0
-0.165501 -0.023434 0
-0.163790 -0.033535 0
-0.160845 -0.043397 0
-0.156641 -0.052820 0
-0.151177 -0.061592 0
-0.144478 -0.069496 0
-0.136599 -0.076314 0
-0.127626 -0.081840 0
-0.117683 -0.085884 0
-0.106930 -0.088288 0
-0.095562 -0.088934 0
-0.083805 -0.087756 0
-0.071915 -0.084749 0
-0.060162 -0.079975 0
-0.048826 -0.073568 0
-0.038181 -0.065734 0
-0.028486 -0.056747 0
-0.019970 -0.046939 0
-0.012825 -0.036696 0
-0.007192 -0.026435 0
-0.003163 -0.016599 0
-0.000772 -0.007639 0
0.000000 -0.000000 0
0.000000 0.000000 0
-0.001068 0.015266 0
-0.003938 0.028926 0
-0.008308 0.040939 0
-0.013913 0.051319 0
-0.020518 0.060123 0
-0.027922 0.067431 0
-0.035952 0.073337 0
-0.044458 0.077939 0
-0.053312 0.081331 0
-0.062402 0.083598 0
-0.071631 0.084812 0
-0.080913 0.085032 0
-0.090167 0.084305 0
-0.099320 0.082661 0
-0.108301 0.080124 0
-0.117041 0.076707 0
-0.125470 0.072419 0
-0.133520 0.067269 0
-0.141117 0.061266 0
-0.148189 0.054426 0
-0.154657 0.046775 0
-0.160442 0.038348 0
-0.165464 0.029196 0
-0.169637 0.019387 0
-0.172877 0.009009 0
-0.175100 -0.001831 0
-0.176224 -0.013001 0
-0.176171 -0.024349 0
-0.174873 -0.035697 0
-0.172273 -0.046845 0
-0.168329 -0.057575 0
-0.163023 -0.067650 0
-0.156361 -0.076826 0
-0.148383 -0.084851 0
-0.139162 -0.091481 0
-0.128814 -0.096491 0
-0.117497 -0.099681 0
-0.105412 -0.100896 0
-0.092798 -0.100038 0
-0.079932 -0.097075 0
-0.067115 -0.092053 0
-0.054663 -0.085103 0
-0.042892 -0.076439 0
-0.032107 -0.066356 0
-0.022581 -0.055224 0
-0.014546 -0.043470 0
-0.008183 -0.031568 0
-0.003610 -0.020016 0
-0.000885 -0.009326 0
0.000000 -0.000000 0
0.000000 0.000000 0
-0.001108 0.017274 0
-0.004081 0.032617 0
-0.008608 0.046022 0
-0.014410 0.057540 0
-0.021245 0.067259 0
-0.028904 0.075291 0
-0.037208 0.081757 0
-0.046001 0.086777 0
-0.055153 0.090466 0
-0.064552 0.092925 0
-0.074098 0.094239 0
-0.083705 0.094477 0
-0.093296 0.093690 0
-0.102798 0.091917 0
-0.112143 0.089180 0
-0.121264 0.085496 0
-0.130096 0.080872 0
-0.138569 0.075316 0
-0.146614 0.068834 0
-0.154158 0.061441 0
-0.161124 0.053157 0
-0.167431 0.044016 0
-0.172995 0.034064 0
-0.177728 0.023369 0
-0.181538 0.012015 0
-0.184333 0.000112 0
-0.186018 -0.012208 0
-0.186503 -0.024785 0
-0.185704 -0.037434 0
-0.183545 -0.049941 0
-0.179965 -0.062069 0
-0.174925 -0.073560 0
-0.168410 -0.084136 0
-0.160439 -0.093514 0
-0.151069 -0.101409 0
-0.140403 -0.107549 0
-0.128593 -0.111690 0
-0.115838 -0.113633 0
-0.102392 -0.113236 0
-0.088548 -0.110432 0
-0.074640 -0.105245 0
-0.061021 -0.097791 0
-0.048056 -0.088290 0
-0.036098 -0.077058 0
-0.025473 -0.064500 0
-0.016463 -0.051094 0
-0.009291 -0.037371 0
-0.004113 -0.023896 0
-0.001013 -0.011249 0
0.000000 -0.000000 0
0.000000 0.000000 0
-0.001139 0.019348 0
-0.004197 0.036427 0
-0.008852 0.051267 0
-0.014816 0.063956 0
-0.021841 0.074617 0
-0.029711 0.083393 0
-0.038241 0.090434 0
-0.047275 0.095885 0
-0.056678 0.099882 0
-0.066335 0.102542 0
-0.076150 0.103965 0
-0.086036 0.104231 0
-0.095917 0.103398 0
-0.105724 0.101509 0
-0.115390 0.098591 0