# vtk DataFile Version 2.0
generated by CFD-lab course output (written by Tobias Neckel) 
ASCII

DATASET STRUCTURED_GRID
DIMENSIONS  51 51 1 
POINTS 2601 float

0.000000 0.000000 0
0.020000 0.000000 0
0.040000 0.000000 0
0.060000 0.000000 0
0.080000 0.000000 0
0.100000 0.000000 0
0.120000 0.000000 0
0.140000 0.000000 0
0.160000 0.000000 0
0.180000 0.000000 0
0.200000 0.000000 0
0.220000 0.000000 0
0.240000 0.000000 0
0.260000 0.000000 0
0.280000 0.000000 0
0.300000 0.000000 0
0.320000 0.000000 0
0.340000 0.000000 0
0.360000 0.000000 0
0.380000 0.000000 0
0.400000 0.000000 0
0.420000 0.000000 0
0.440000 0.000000 0
0.460000 0.000000 0
0.480000 0.000000 0
0.500000 0.000000 0
0.520000 0.000000 0
0.540000 0.000000 0
0.560000 0.000000 0
0.580000 0.000000 0
0.600000 0.000000 0
0.620000 0.000000 0
0.640000 0.000000 0
0.660000 0.000000 0
0.680000 0.000000 0
0.700000 0.000000 0
0.720000 0.000000 0
0.740000 0.000000 0
0.760000 0.000000 0
0.780000 0.000000 0
0.800000 0.000000 0
0.820000 0.000000 0
0.840000 0.000000 0
0.860000 0.000000 0
0.880000 0.000000 0
0.900000 0.000000 0
0.920000 0.000000 0
0.940000 0.000000 0
0.960000 0.000000 0
0.980000 0.000000 0
1.000000 0.000000 0
0.000000 0.020000 0
0.020000 0.020000 0
0.040000 0.020000 0
0.060000 0.020000 0
0.080000 0.020000 0
0.100000 0.020000 0
0.120000 0.020000 0
0.140000 0.020000 0
0.160000 0.020000 0
0.180000 0.020000 0
0.200000 0.020000 0
0.220000 0.020000 0
0.240000 0.020000 0
0.260000 0.020000 0
0.280000 0.020000 0
0.300000 0.020000 0
0.320000 0.020000 0
0.340000 0.020000 0
0.360000 0.020000 0
0.380000 0.020000 0
0.400000 0.020000 0
0.420000 0.020000 0
0.440000 0.020000 0
0.460000 0.020000 0
0.480000 0.020000 0
0.500000 0.020000 0
0.520000 0.020000 0
0.540000 0.020000 0
0.560000 0.020000 0
0.580000 0.020000 0
0.600000 0.020000 0
0.620000 0.020000 0
0.640000 0.020000 0
0.660000 0.020000 0
0.680000 0.020000 0
0.700000 0.020000 0
0.720000 0.020000 0
0.740000 0.020000 0
0.760000 0.020000 0
0.780000 0.020000 0
0.800000 0.020000 0
0.820000 0.020000 0
0.840000 0.020000 0
0.860000 0.020000 0
0.880000 0.020000 0
0.900000 0.020000 0
0.920000 0.020000 0
0.940000 0.020000 0
0.960000 0.020000 0
0.980000 0.020000 0
1.000000 0.020000 0
0.000000 0.040000 0
0.020000 0.040000 0
0.040000 0.040000 0
0.060000 0.040000 0
0.080000 0.040000 0
0.100000 0.040000 0
0.120000 0.040000 0
0.140000 0.040000 0
0.160000 0.040000 0
0.180000 0.040000 0
0.200000 0.040000 0
0.220000 0.040000 0
0.240000 0.040000 0
0.260000 0.040000 0
0.280000 0.040000 0
0.300000 0.040000 0
0.320000 0.040000 0
0.340000 0.040000 0
0.360000 0.040000 0
0.380000 0.040000 0
0.400000 0.040000 0
0.420000 0.040000 0
0.440000 0.040000 0
0.460000 0.040000 0
0.480000 0.040000 0
0.500000 0.040000 0
0.520000 0.040000 0
0.540000 0.040000 0
0.560000 0.040000 0
0.580000 0.040000 0
0.600000 0.040000 0
0.620000 0.040000 0
0.640000 0.040000 0
0.660000 0.040000 0
0.680000 0.040000 0
0.700000 0.040000 0
0.720000 0.040000 0
0.740000 0.040000 0
0.760000 0.040000 0
0.780000 0.040000 0
0.800000 0.040000 0
0.820000 0.040000 0
0.840000 0.040000 0
0.860000 0.040000 0
0.880000 0.040000 0
0.900000 0.040000 0
0.920000 0.040000 0
0.940000 0.040000 0
0.960000 0.040000 0
0.980000 0.040000 0
1.000000 0.040000 0
0.000000 0.060000 0
0.020000 0.060000 0
0.040000 0.060000 0
0.060000 0.060000 0
0.080000 0.060000 0
0.100000 0.060000 0
0.120000 0.060000 0
0.140000 0.060000 0
0.160000 0.060000 0
0.180000 0.060000 0
0.200000 0.060000 0
0.220000 0.060000 0
0.240000 0.060000 0
0.260000 0.060000 0
0.280000 0.060000 0
0.300000 0.060000 0
0.320000 0.060000 0
0.340000 0.060000 0
0.360000 0.060000 0
0.380000 0.060000 0
0.400000 0.060000 0
0.420000 0.060000 0
0.440000 0.060000 0
0.460000 0.060000 0
0.480000 0.060000 0
0.500000 0.060000 0
0.520000 0.060000 0
0.540000 0.060000 0
0.560000 0.060000 0
0.580000 0.060000 0
0.600000 0.060000 0
0.620000 0.060000 0
0.640000 0.060000 0
0.660000 0.060000 0
0.680000 0.060000 0
0.700000 0.060000 0
0.720000 0.060000 0
0.740000 0.060000 0
0.760000 0.060000 0
0.780000 0.060000 0
0.800000 0.060000 0
0.820000 0.060000 0
0.840000 0.060000 0
0.860000 0.060000 0
0.880000 0.060000 0
0.900000 0.060000 0
0.920000 0.060000 0
0.940000 0.060000 0
0.960000 0.060000 0
0.980000 0.060000 0
1.000000 0.060000 0
0.000000 0.080000 0
0.020000 0.080000 0
0.040000 0.080000 0
0.060000 0.080000 0
0.080000 0.080000 0
0.100000 0.080000 0
0.120000 0.080000 0
0.140000 0.080000 0
0.160000 0.080000 0
0.180000 0.080000 0
0.200000 0.080000 0
0.220000 0.080000 0
0.240000 0.080000 0
0.260000 0.080000 0
0.280000 0.080000 0
0.300000 0.080000 0
0.320000 0.080000 0
0.340000 0.080000 0
0.360000 0.080000 0
0.380000 0.080000 0
0.400000 0.080000 0
0.420000 0.080000 0
0.440000 0.080000 0
0.460000 0.080000 0
0.480000 0.080000 0
0.500000 0.080000 0
0.520000 0.080000 0
0.540000 0.080000 0
0.560000 0.080000 0
0.580000 0.080000 0
0.600000 0.080000 0
0.620000 0.080000 0
0.640000 0.080000 0
0.660000 0.080000 0
0.680000 0.080000 0
0.700000 0.080000 0
0.720000 0.080000 0
0.740000 0.080000 0
0.760000 0.080000 0
0.780000 0.080000 0
0.800000 0.080000 0
0.820000 0.080000 0
0.840000 0.080000 0
0.860000 0.080000 0
0.880000 0.080000 0
0.900000 0.080000 0
0.920000 0.080000 0
0.940000 0.080000 0
0.960000 0.080000 0
0.980000 0.080000 0
1.000000 0.080000 0
0.000000 0.100000 0
0.020000 0.100000 0
0.040000 0.100000 0
0.060000 0.100000 0
0.080000 0.100000 0
0.100000 0.100000 0
0.120000 0.100000 0
0.140000 0.100000 0
0.160000 0.100000 0
0.180000 0.100000 0
0.200000 0.100000 0
0.220000 0.100000 0
0.240000 0.100000 0
0.260000 0.100000 0
0.280000 0.100000 0
0.300000 0.100000 0
0.320000 0.100000 0
0.340000 0.100000 0
0.360000 0.100000 0
0.380000 0.100000 0
0.400000 0.100000 0
0.420000 0.100000 0
0.440000 0.100000 0
0.460000 0.100000 0
0.480000 0.100000 0
0.500000 0.100000 0
0.520000 0.100000 0
0.540000 0.100000 0
0.560000 0.100000 0
0.580000 0.100000 0
0.600000 0.100000 0
0.620000 0.100000 0
0.640000 0.100000 0
0.660000 0.100000 0
0.680000 0.100000 0
0.700000 0.100000 0
0.720000 0.100000 0
0.740000 0.100000 0
0.760000 0.100000 0
0.780000 0.100000 0
0.800000 0.100000 0
0.820000 0.100000 0
0.840000 0.100000 0
0.860000 0.100000 0
0.880000 0.100000 0
0.900000 0.100000 0
0.920000 0.100000 0
0.940000 0.100000 0
0.960000 0.100000 0
0.980000 0.100000 0
1.000000 0.100000 0
0.000000 0.120000 0
0.020000 0.120000 0
0.040000 0.120000 0
0.060000 0.120000 0
0.080000 0.120000 0
0.100000 0.120000 0
0.120000 0.120000 0
0.140000 0.120000 0
0.160000 0.120000 0
0.180000 0.120000 0
0.200000 0.120000 0
0.220000 0.120000 0
0.240000 0.120000 0
0.260000 0.120000 0
0.280000 0.120000 0
0.300000 0.120000 0
0.320000 0.120000 0
0.340000 0.120000 0
0.360000 0.120000 0
0.380000 0.120000 0
0.400000 0.120000 0
0.420000 0.120000 0
0.440000 0.120000 0
0.460000 0.120000 0
0.480000 0.120000 0
0.500000 0.120000 0
0.520000 0.120000 0
0.540000 0.120000 0
0.560000 0.120000 0
0.580000 0.120000 0
0.600000 0.120000 0
0.620000 0.120000 0
0.640000 0.120000 0
0.660000 0.120000 0
0.680000 0.120000 0
0.700000 0.120000 0
0.720000 0.120000 0
0.740000 0.120000 0
0.760000 0.120000 0
0.780000 0.120000 0
0.800000 0.120000 0
0.820000 0.120000 0
0.840000 0.120000 0
0.860000 0.120000 0
0.880000 0.120000 0
0.900000 0.120000 0
0.920000 0.120000 0
0.940000 0.120000 0
0.960000 0.120000 0
0.980000 0.120000 0
1.000000 0.120000 0
0.000000 0.140000 0
0.020000 0.140000 0
0.040000 0.140000 0
0.060000 0.140000 0
0.080000 0.140000 0
0.100000 0.140000 0
0.120000 0.140000 0
0.140000 0.140000 0
0.160000 0.140000 0
0.180000 0.140000 0
0.200000 0.140000 0
0.220000 0.140000 0
0.240000 0.140000 0
0.260000 0.140000 0
0.280000 0.140000 0
0.300000 0.140000 0
0.320000 0.140000 0
0.340000 0.140000 0
0.360000 0.140000 0
0.380000 0.140000 0
0.400000 0.140000 0
0.420000 0.140000 0
0.440000 0.140000 0
0.460000 0.140000 0
0.480000 0.140000 0
0.500000 0.140000 0
0.520000 0.140000 0
0.540000 0.140000 0
0.560000 0.140000 0
0.580000 0.140000 0
0.600000 0.140000 0
0.620000 0.140000 0
0.640000 0.140000 0
0.660000 0.140000 0
0.680000 0.140000 0
0.700000 0.140000 0
0.720000 0.140000 0
0.740000 0.140000 0
0.760000 0.140000 0
0.780000 0.140000 0
0.800000 0.140000 0
0.820000 0.140000 0
0.840000 0.140000 0
0.860000 0.140000 0
0.880000 0.140000 0
0.900000 0.140000 0
0.920000 0.140000 0
0.940000 0.140000 0
0.960000 0.140000 0
0.980000 0.140000 0
1.000000 0.140000 0
0.000000 0.160000 0
0.020000 0.160000 0
0.040000 0.160000 0
0.060000 0.160000 0
0.080000 0.160000 0
0.100000 0.160000 0
0.120000 0.160000 0
0.140000 0.160000 0
0.160000 0.160000 0
0.180000 0.160000 0
0.200000 0.160000 0
0.220000 0.160000 0
0.240000 0.160000 0
0.260000 0.160000 0
0.280000 0.160000 0
0.300000 0.160000 0
0.320000 0.160000 0
0.340000 0.160000 0
0.360000 0.160000 0
0.380000 0.160000 0
0.400000 0.160000 0
0.420000 0.160000 0
0.440000 0.160000 0
0.460000 0.160000 0
0.480000 0.160000 0
0.500000 0.160000 0
0.520000 0.160000 0
0.540000 0.160000 0
0.560000 0.160000 0
0.580000 0.160000 0
0.600000 0.160000 0
0.620000 0.160000 0
0.640000 0.160000 0
0.660000 0.160000 0
0.680000 0.160000 0
0.700000 0.160000 0
0.720000 0.160000 0
0.740000 0.160000 0
0.760000 0.160000 0
0.780000 0.160000 0
0.800000 0.160000 0
0.820000 0.160000 0
0.840000 0.160000 0
0.860000 0.160000 0
0.880000 0.160000 0
0.900000 0.160000 0
0.920000 0.160000 0
0.940000 0.160000 0
0.960000 0.160000 0
0.980000 0.160000 0
1.000000 0.160000 0
0.000000 0.180000 0
0.020000 0.180000 0
0.040000 0.180000 0
0.060000 0.180000 0
0.080000 0.180000 0
0.100000 0.180000 0
0.120000 0.180000 0
0.140000 0.180000 0
0.160000 0.180000 0
0.180000 0.180000 0
0.200000 0.180000 0
0.220000 0.180000 0
0.240000 0.180000 0
0.260000 0.180000 0
0.280000 0.180000 0
0.300000 0.180000 0
0.320000 0.180000 0
0.340000 0.180000 0
0.360000 0.180000 0
0.380000 0.180000 0
0.400000 0.180000 0
0.420000 0.180000 0
0.440000 0.180000 0
0.460000 0.180000 0
0.480000 0.180000 0
0.500000 0.180000 0
0.520000 0.180000 0
0.540000 0.180000 0
0.560000 0.180000 0
0.580000 0.180000 0
0.600000 0.180000 0
0.620000 0.180000 0
[...]
POINT_DATA 2601 

VECTORS velocity float
0.000000 0.000000 0
0.000001 0.000000 0
0.000001 0.000000 0
0.000000 0.000000 0
0.000000 0.000000 0
-0.000000 0.000000 0
-0.000000 0.000000 0
-0.000000 0.000000 0
-0.000000 0.000000 0
0.000000 0.000000 0
0.000000 0.000000 0
0.000000 0.000000 0
0.000000 0.000000 0
-0.000000 0.000000 0
-0.000000 0.000000 0
-0.000000 0.000000 0
-0.000000 0.000000 0
-0.000000 0.000000 0
-0.000000 0.000000 0
0.000000 0.000000 0
0.000000 0.000000 0
0.000000 0.000000 0
-0.000000 0.000000 0
-0.000000 0.000000 0
-0.000000 0.000000 0
-0.000000 0.000000 0
-0.000000 0.000000 0
-0.000000 0.000000 0
-0.000000 0.000000 0
-0.000000 0.000000 0
-0.000000 0.000000 0
-0.000000 0.000000 0
-0.000000 0.000000 0
-0.000000 0.000000 0
-0.000000 0.000000 0
-0.000000 0.000000 0
0.000000 0.000000 0
0.000000 0.000000 0
0.000000 0.000000 0
0.000000 0.000000 0
0.000000 0.000000 0
0.000000 0.000000 0
-0.000000 0.000000 0
-0.000000 0.000000 0
0.000000 0.000000 0
0.000000 0.000000 0
0.000000 0.000000 0
0.000000 0.000000 0
0.000000 0.000000 0
0.000000 0.000000 0
0.000000 0.000000 0
0.000000 0.000001 0
0.000061 -0.000059 0
0.000082 -0.000022 0
-0.000014 0.000055 0
-0.000255 0.000144 0
-0.000645 0.000227 0
-0.001171 0.000301 0
-0.001815 0.000363 0
-0.002557 0.000412 0
-0.003376 0.000449 0
-0.004253 0.000476 0
-0.005170 0.000493 0
-0.006112 0.000502 0
-0.007062 0.000504 0
-0.008008 0.000498 0
-0.008935 0.000486 0
-0.009832 0.000467 0
-0.010685 0.000442 0
-0.011483 0.000410 0
-0.012213 0.000372 0
-0.012861 0.000326 0
-0.013417 0.000274 0
-0.013868 0.000216 0
-0.014204 0.000152 0
-0.014414 0.000082 0
-0.014490 0.000009 0
-0.014426 -0.000068 0
-0.014219 -0.000147 0
-0.013866 -0.000225 0
-0.013372 -0.000301 0
-0.012742 -0.000373 0
-0.011985 -0.000439 0
-0.011116 -0.000497 0
-0.010151 -0.000544 0
-0.009110 -0.000579 0
-0.008017 -0.000601 0
-0.006898 -0.000607 0
-0.005779 -0.000599 0
-0.004688 -0.000574 0
-0.003652 -0.000535 0
-0.002697 -0.000482 0
-0.001847 -0.000416 0
-0.001122 -0.000339 0
-0.000538 -0.000255 0
-0.000105 -0.000167 0
0.000174 -0.000079 0
0.000305 0.000002 0
0.000306 0.000066 0
0.000213 0.000100 0
0.000082 0.000082 0
0.000000 -0.000000 0
0.000000 0.000001 0
0.000025 -0.000081 0
-0.000075 0.000075 0
-0.000386 0.000337 0
-0.000944 0.000631 0
-0.001754 0.000915 0
-0.002797 0.001170 0
-0.004046 0.001386 0
-0.005467 0.001561 0
-0.007026 0.001696 0
-0.008691 0.001795 0
-0.010427 0.001859 0
-0.012206 0.001892 0
-0.014000 0.001896 0
-0.015783 0.001873 0
-0.017529 0.001824 0
-0.019214 0.001750 0
-0.020813 0.001651 0
-0.022305 0.001527 0
-0.023664 0.001378 0
-0.024869 0.001205 0
-0.025896 0.001007 0
-0.026724 0.000787 0
-0.027335 0.000545 0
-0.027710 0.000286 0
-0.027835 0.000012 0
-0.027701 -0.000272 0
-0.027301 -0.000560 0
-0.026636 -0.000846 0
-0.025710 -0.001125 0
-0.024535 -0.001387 0
-0.023129 -0.001626 0
-0.021518 -0.001835 0
-0.019732 -0.002006 0
-0.017809 -0.002133 0
-0.015788 -0.002212 0
-0.013717 -0.002239 0
-0.011643 -0.002210 0
-0.009614 -0.002127 0
-0.007680 -0.001991 0
-0.005887 -0.001805 0
-0.004276 -0.001575 0
-0.002882 -0.001309 0
-0.001734 -0.001017 0
-0.000848 -0.000712 0
-0.000229 -0.000410 0
0.000133 -0.000133 0
0.000269 0.000092 0
0.000231 0.000224 0
0.000103 0.000213 0
0.000000 0.000000 0
0.000000 0.000001 0
-0.000056 0.000016 0
-0.000350 0.000387 0
-0.000949 0.000924 0
-0.001879 0.001511 0
-0.003139 0.002080 0
-0.004704 0.002594 0
-0.006540 0.003033 0
-0.008603 0.003393 0
-0.010850 0.003673 0
-0.013236 0.003876 0
-0.015719 0.004009 0
-0.018256 0.004076 0
-0.020810 0.004080 0
-0.023343 0.004027 0
-0.025820 0.003917 0
-0.028206 0.003752 0
-0.030467 0.003533 0
-0.032570 0.003261 0
-0.034482 0.002936 0
-0.036171 0.002558 0
-0.037606 0.002130 0
-0.038758 0.001655 0
-0.039601 0.001137 0
-0.040113 0.000583 0
-0.040274 -0.000000 0
-0.040071 -0.000602 0
-0.039499 -0.001212 0
-0.038557 -0.001817 0
-0.037253 -0.002402 0
-0.035606 -0.002954 0
-0.033639 -0.003456 0
-0.031387 -0.003894 0
-0.028893 -0.004254 0
-0.026206 -0.004523 0
-0.023381 -0.004692 0
-0.020481 -0.004753 0
-0.017571 -0.004701 0
-0.014715 -0.004537 0
-0.011979 -0.004262 0
-0.009425 -0.003886 0
-0.007110 -0.003421 0
-0.005080 -0.002881 0
-0.003374 -0.002289 0
-0.002014 -0.001672 0
-0.001008 -0.001060 0
-0.000343 -0.000496 0
0.000013 -0.000032 0
0.000123 0.000266 0
0.000076 0.000313 0
0.000000 0.000000 0
0.000000 0.000000 0
-0.000154 0.000268 0
-0.000677 0.000966 0
-0.001604 0.001866 0
-0.002942 0.002821 0
-0.004674 0.003741 0
-0.006769 0.004571 0
-0.009183 0.005285 0
-0.011866 0.005872 0
-0.014764 0.006329 0
-0.017826 0.006663 0
-0.020999 0.006878 0
-0.024234 0.006983 0
-0.027482 0.006983 0
-0.030699 0.006883 0
-0.033838 0.006687 0
-0.036857 0.006397 0
-0.039714 0.006015 0
-0.042365 0.005542 0
-0.044771 0.004979 0
-0.046892 0.004328 0
-0.048690 0.003594 0
-0.050130 0.002782 0
-0.051180 0.001900 0
-0.051813 0.000958 0
-0.052007 -0.000029 0
-0.051746 -0.001046 0
-0.051025 -0.002074 0
-0.049843 -0.003092 0
-0.048212 -0.004075 0
-0.046153 -0.005001 0
-0.043697 -0.005844 0
-0.040885 -0.006581 0
-0.037769 -0.007188 0
-0.034408 -0.007645 0
-0.030871 -0.007936 0
-0.027231 -0.008049 0
-0.023567 -0.007977 0
-0.019958 -0.007719 0
-0.016483 -0.007280 0
-0.013218 -0.006674 0
-0.010230 -0.005920 0
-0.007579 -0.005045 0
-0.005311 -0.004083 0
-0.003455 -0.003078 0
-0.002024 -0.002080 0
-0.001008 -0.001154 0
-0.000373 -0.000375 0
-0.000058 0.000161 0
0.000026 0.000336 0
0.000000 0.000000 0
0.000000 -0.000000 0
-0.000254 0.000692 0
-0.001021 0.001836 0
-0.002296 0.003189 0
-0.004060 0.004582 0
-0.006279 0.005909 0
-0.008908 0.007103 0
-0.011894 0.008129 0
-0.015178 0.008973 0
-0.018702 0.009632 0
-0.022405 0.010111 0
-0.026227 0.010417 0
-0.030113 0.010559 0
-0.034006 0.010545 0
-0.037853 0.010383 0
-0.041602 0.010076 0
-0.045203 0.009628 0
-0.048605 0.009041 0
-0.051759 0.008319 0
-0.054617 0.007462 0
-0.057135 0.006477 0
-0.059267 0.005368 0
-0.060974 0.004145 0
-0.062219 0.002820 0
-0.062971 0.001409 0
-0.063206 -0.000067 0
-0.062906 -0.001584 0
-0.062063 -0.003115 0
-0.060679 -0.004629 0
-0.058768 -0.006092 0
-0.056351 -0.007469 0
-0.053466 -0.008724 0
-0.050159 -0.009822 0
-0.046487 -0.010731 0
-0.042521 -0.011421 0
-0.038336 -0.011869 0
-0.034018 -0.012057 0
-0.029655 -0.011974 0
-0.025340 -0.011620 0
-0.021163 -0.011003 0
-0.017211 -0.010139 0
-0.013565 -0.009059 0
-0.010293 -0.007801 0
-0.007452 -0.006413 0
-0.005078 -0.004958 0
-0.003191 -0.003507 0
-0.001786 -0.002148 0
-0.000833 -0.000982 0
-0.000277 -0.000132 0
-0.000036 0.000255 0
0.000000 0.000000 0
0.000000 -0.000000 0
-0.000353 0.001289 0
-0.001366 0.003007 0
-0.002994 0.004905 0
-0.005189 0.006805 0
-0.007899 0.008589 0
-0.011061 0.010186 0
-0.014612 0.011556 0
-0.018485 0.012680 0
-0.022613 0.013555 0
-0.026929 0.014188 0
-0.031369 0.014586 0
-0.035869 0.014762 0
-0.040368 0.014724 0
-0.044806 0.014480 0
-0.049126 0.014037 0
-0.053269 0.013400 0
-0.057180 0.012571 0
-0.060805 0.011555 0
-0.064089 0.010355 0
-0.066982 0.008978 0
-0.069434 0.007434 0
-0.071400 0.005734 0
-0.072841 0.003897 0
-0.073722 0.001945 0
-0.074014 -0.000095 0
-0.073700 -0.002189 0
-0.072769 -0.004300 0
-0.071223 -0.006387 0
-0.069076 -0.008403 0
-0.066352 -0.010303 0
-0.063090 -0.012037 0
-0.059340 -0.013559 0
-0.055167 -0.014826 0
-0.050645 -0.015796 0
-0.045860 -0.016439 0
-0.040903 -0.016730 0
-0.035876 -0.016655 0
-0.030879 -0.016211 0
-0.026016 -0.015409 0
-0.021385 -0.014272 0
-0.017078 -0.012838 0
-0.013175 -0.011158 0
-0.009741 -0.009298 0
-0.006826 -0.007338 0
-0.004455 -0.005372 0
-0.002631 -0.003512 0
-0.001333 -0.001884 0
-0.000514 -0.000636 0
-0.000101 0.000059 0
0.000000 0.000000 0
0.000000 -0.000000 0
-0.000448 0.002057 0
-0.001702 0.004477 0
-0.003679 0.007014 0
-0.006304 0.009488 0
-0.009500 0.011780 0
-0.013190 0.013816 0
-0.017296 0.015553 0
-0.021743 0.016974 0
-0.026457 0.018077 0
-0.031364 0.018867 0
-0.036395 0.019357 0
-0.041481 0.019558 0
-0.046556 0.019483 0
-0.051555 0.019140 0
-0.056415 0.018538 0
-0.061073 0.017682 0
-0.065470 0.016577 0
-0.069544 0.015227 0
-0.073239 0.013639 0
-0.076498 0.011822 0
-0.079267 0.009787 0
-0.081498 0.007552 0
-0.083147 0.005141 0
-0.084174 0.002582 0
-0.084550 -0.000089 0
-0.084254 -0.002829 0
-0.083273 -0.005592 0
-0.081607 -0.008322 0
-0.079270 -0.010963 0
-0.076286 -0.013455 0
-0.072695 -0.015735 0
-0.068550 -0.017744 0
-0.063918 -0.019426 0
-0.058880 -0.020729 0
-0.053525 -0.021611 0
-0.047956 -0.022041 0
-0.042281 -0.021998 0
-0.036612 -0.021480 0
-0.031064 -0.020496 0
-0.025746 -0.019078 0
-0.020763 -0.017270 0
-0.016207 -0.015137 0
-0.012157 -0.012762 0
-0.008671 -0.010245 0
-0.005788 -0.007702 0
-0.003520 -0.005270 0
-0.001856 -0.003099 0
-0.000758 -0.001364 0
-0.000166 -0.000258 0
0.000000 0.000000 0
0.000000 -0.000000 0
-0.000539 0.002990 0
-0.002025 0.006239 0
-0.004344 0.009508 0
-0.007389 0.012625 0
-0.011061 0.015474 0
-0.015267 0.017981 0
-0.019915 0.020109 0
-0.024921 0.021841 0
-0.030203 0.023177 0
-0.035681 0.024126 0
-0.041281 0.024704 0
-0.046929 0.024923 0
-0.052555 0.024797 0
-0.058092 0.024339 0
-0.063470 0.023555 0
-0.068625 0.022455 0
-0.073491 0.021042 0
-0.078006 0.019324 0
-0.082106 0.017308 0
-0.085731 0.015006 0
-0.088825 0.012434 0
-0.091335 0.009613 0
-0.093212 0.006573 0
-0.094414 0.003349 0
-0.094908 -0.000015 0
-0.094669 -0.003467 0
-0.093681 -0.006947 0
-0.091942 -0.010390 0
-0.089462 -0.013725 0
-0.086266 -0.016878 0
-0.082392 -0.019773 0
-0.077895 -0.022336 0
-0.072842 -0.024496 0
-0.067317 -0.026190 0
-0.061417 -0.027363 0
-0.055250 -0.027974 0
-0.048933 -0.027999 0
-0.042589 -0.027428 0
-0.036343 -0.026275 0
-0.030319 -0.024573 0
-0.024635 -0.022377 0
-0.019397 -0.019764 0
-0.014697 -0.016834 0
-0.010609 -0.013707 0
-0.007183 -0.010524 0
-0.004445 -0.007444 0
-0.002395 -0.004645 0
-0.001007 -0.002325 0
-0.000232 -0.000699 0
0.000000 0.000000 0
0.000000 0.000000 0
-0.000625 0.004082 0
-0.002334 0.008283 0
-0.004981 0.012378 0
-0.008432 0.016205 0
-0.012567 0.019657 0
-0.017272 0.022669 0
-0.022447 0.025208 0
-0.027994 0.027262 0
-0.033824 0.028837 0
-0.039853 0.029945 0
-0.046001 0.030605 0
-0.052191 0.030833 0
-0.058349 0.030646 0
-0.064404 0.030055 0
-0.070285 0.029072 0
-0.075924 0.027704 0
-0.081253 0.025958 0
-0.086203 0.023841 0
-0.090711 0.021365 0
-0.094713 0.018541 0
-0.098147 0.015391 0
-0.100958 0.011939 0
-0.103092 0.008221 0
-0.104505 0.004279 0
-0.105157 0.000166 0
-0.105020 -0.004057 0
-0.104074 -0.008318 0
-0.102313 -0.012541 0
-0.099743 -0.016639 0
-0.096384 -0.020525 0
-0.092274 -0.024107 0
-0.087465 -0.027295 0
-0.082027 -0.030003 0
-0.076044 -0.032154 0
-0.069616 -0.033678 0
-0.062860 -0.034525 0
-0.055899 -0.034660 0
-0.048867 -0.034070 0
-0.041903 -0.032766 0
-0.035145 -0.030786 0
-0.028725 -0.028192 0
-0.022766 -0.025074 0
-0.017378 -0.021550 0
-0.012650 -0.017759 0
-0.008647 -0.013866 0
-0.005410 -0.010058 0
-0.002953 -0.006537 0
-0.001261 -0.003528 0
-0.000297 -0.001265 0
0.000000 0.000000 0
0.000000 0.000000 0
-0.000706 0.005325 0
-0.002627 0.010596 0
-0.005587 0.015606 0
-0.009427 0.020211 0
-0.014005 0.024314 0
-0.019192 0.027861 0
-0.024872 0.030830 0
-0.030939 0.033218 0
-0.037298 0.035036 0
-0.043857 0.036303 0
-0.050532 0.037041 0
-0.057245 0.037271 0
-0.063917 0.037011 0
-0.070476 0.036275 0
-0.076848 0.035076 0
-0.082963 0.033422 0
-0.088750 0.031321 0
-0.094139 0.028782 0
-0.099063 0.025818 0
-0.103456 0.022442 0
-0.107252 0.018679 0
-0.110392 0.014558 0
-0.112819 0.010120 0
-0.114484 0.005414 0
-0.115341 0.000500 0
-0.115358 -0.004550 0
-0.114509 -0.009654 0
-0.112781 -0.014721 0
-0.110176 -0.019653 0
-0.106710 -0.024346 0
-0.102414 -0.028692 0
-0.097338 -0.032583 0
-0.091549 -0.035918 0
-0.085135 -0.038600 0
-0.078197 -0.040547 0
-0.070856 -0.041692 0
-0.063245 -0.041991 0
-0.055510 -0.041424 0
-0.047801 -0.039998 0
-0.040273 -0.037752 0
-0.033076 -0.034755 0
-0.026352 -0.031110 0
-0.020229 -0.026951 0
-0.014815 -0.022439 0
-0.010195 -0.017764 0
-0.006425 -0.013138 0
-0.003536 -0.008794 0
-0.001524 -0.004981 0
-0.000363 -0.001960 0
0.000000 0.000000 0
0.000000 0.000000 0
-0.000782 0.006710 0
-0.002904 0.013164 0
-0.006160 0.019177 0
-0.010368 0.024622 0
-0.015367 0.029422 0
-0.021012 0.033536 0
-0.027175 0.036955 0
-0.033740 0.039688 0
-0.040603 0.041754 0
-0.047670 0.043180 0
-0.054852 0.043993 0
-0.062068 0.044218 0
-0.069237 0.043877 0
-0.076285 0.042986 0
-0.083138 0.041559 0
-0.089723 0.039605 0
-0.095968 0.037134 0
-0.101802 0.034155 0
-0.107154 0.030681 0
-0.111956 0.026730 0
-0.116140 0.022327 0
-0.119642 0.017506 0
-0.122402 0.012312 0
-0.124364 0.006800 0
-0.125480 0.001040 0
-0.125706 -0.004889 0
-0.125014 -0.010895 0
-0.123381 -0.016873 0
-0.120803 -0.022711 0
-0.117287 -0.028287 0
-0.112860 -0.033479 0
-0.107566 -0.038159 0
-0.101469 -0.042206 0
-0.094653 -0.045506 0
-0.087223 -0.047957 0
-0.079305 -0.049477 0
-0.071039 -0.050006 0
-0.062581 -0.049514 0
-0.054097 -0.048003 0
-0.045759 -0.045511 0
-0.037738 -0.042113 0
-0.030196 -0.037921 0
-0.023285 -0.033087 0
-0.017134 -0.027793 0
-0.011849 -0.022256 0
-0.007507 -0.016717 0
-0.004154 -0.011438 0
-0.001802 -0.006700 0
-0.000433 -0.002790 0
0.000000 0.000000 0
0.000000 0.000000 0
-0.000854 0.008228 0
-0.003162 0.015973 0
-0.006695 0.023071 0
-0.011250 0.029418 0
-0.016645 0.034957 0
-0.022722 0.039669 0
-0.029340 0.043558 0
-0.036376 0.046647 0
-0.043719 0.048966 0
-0.051269 0.050552 0
-0.058935 0.051439 0
-0.066633 0.051656 0
-0.074282 0.051228 0
-0.081805 0.050176 0
-0.089128 0.048513 0
-0.096178 0.046251 0
-0.102881 0.043399 0
-0.109165 0.039968 0
-0.114959 0.035972 0
-0.120190 0.031428 0
-0.124790 0.026366 0
-0.128690 0.020821 0
-0.131825 0.014842 0
-0.134135 0.008491 0
-0.135563 0.001842 0
-0.136061 -0.005016 0
-0.135589 -0.011979 0
-0.134119 -0.018932 0
-0.131634 -0.025747 0
-0.128135 -0.032289 0
-0.123639 -0.038413 0
-0.118182 -0.043975 0
-0.111823 -0.048831 0
-0.104643 -0.052845 0
-0.096747 -0.055895 0
-0.088262 -0.057877 0
-0.079337 -0.058716 0
-0.070139 -0.058366 0
-0.060851 -0.056819 0
-0.051662 -0.054111 0
-0.042765 -0.050318 0
-0.034349 -0.045563 0
-0.026589 -0.040013 0
-0.019642 -0.033875 0
-0.013637 -0.027390 0
-0.008675 -0.020833 0
-0.004820 -0.014500 0
-0.002100 -0.008702 0
-0.000507 -0.003762 0
0.000000 -0.000000 0
0.000000 0.000000 0
-0.000920 0.009872 0
-0.003401 0.019006 0
-0.007190 0.027265 0
-0.012066 0.034572 0
-0.017829 0.040894 0
-0.024308 0.046232 0
-0.031353 0.050610 0
-0.038830 0.054067 0
-0.046624 0.056647 0
-0.054630 0.058396 0
-0.062754 0.059357 0
-0.070911 0.059564 0
-0.079019 0.059049 0
-0.087002 0.057832 0
-0.094783 0.055931 0
-0.102291 0.053358 0
-0.109451 0.050121 0
-0.116191 0.046233 0
-0.122438 0.041706 0
-0.128119 0.036562 0
-0.133161 0.030827 0
-0.137494 0.024542 0
-0.141048 0.017757 0
-0.143755 0.010538 0
-0.145553 0.002966 0
-0.146385 -0.004863 0
-0.146203 -0.012837 0
-0.144966 -0.020828 0
-0.142649 -0.028694 0
-0.139240 -0.036283 0
-0.134744 -0.043432 0
-0.129189 -0.049975 0
-0.122625 -0.055745 0
-0.115127 -0.060582 0
-0.106798 -0.064338 0
-0.097767 -0.066886 0
-0.088187 -0.068128 0
-0.078238 -0.068000 0
-0.068118 -0.066481 0
-0.058036 -0.063597 0
-0.048211 -0.059426 0
-0.038859 -0.054097 0
-0.030185 -0.047794 0
-0.022375 -0.040745 0
-0.015589 -0.033222 0
-0.009950 -0.025534 0
-0.005547 -0.018014 0
-0.002425 -0.011013 0
-0.000588 -0.004889 0
0.000000 -0.000000 0
0.000000 -0.000000 0
-0.000980 0.011629 0
-0.003618 0.022243 0
-0.007642 0.031736 0
-0.012810 0.040057 0
-0.018912 0.047200 0
-0.025761 0.053193 0
-0.033198 0.058080 0
-0.041083 0.061917 0
-0.049295 0.064766 0
-0.057726 0.066683 0
-0.066280 0.067720 0
-0.074870 0.067921 0
-0.083414 0.067319 0
-0.091835 0.065940 0
-0.100060 0.063802 0
-0.108015 0.060919 0
-0.115628 0.057300 0
-0.122825 0.052955 0
-0.129535 0.047900 0
-0.135682 0.042152 0
-0.141191 0.035741 0
-0.145990 0.028707 0
-0.150002 0.021103 0
-0.153156 0.012996 0
-0.155382 0.004472 0
-0.156613 -0.004366 0
-0.156791 -0.013398 0
-0.155864 -0.022485 0
-0.153792 -0.031474 0
-0.150552 -0.040194 0
-0.146136 -0.048464 0
-0.140558 -0.056094 0
-0.133858 -0.062892 0
-0.126101 -0.068672 0
-0.117386 -0.073255 0
-0.107839 -0.076488 0
-0.097620 -0.078244 0
-0.086917 -0.078435 0
-0.075943 -0.077022 0
-0.064932 -0.074017 0
-0.054128 -0.069495 0
-0.043777 -0.063589 0
-0.034119 -0.056497 0
-0.025373 -0.048471 0
-0.017733 -0.039816 0
-0.011354 -0.030875 0
-0.006349 -0.022025 0
-0.002784 -0.013662 0
-0.000677 -0.006187 0
0.000000 -0.000000 0
0.000000 -0.000000 0
-0.001034 0.013489 0
-0.003812 0.025667 0
-0.008046 0.036458 0
-0.013478 0.045842 0
-0.019883 0.053844 0
-0.027067 0.060518 0
-0.034860 0.065932 0
-0.043116 0.070164 0
-0.051710 0.073290 0
-0.060531 0.075381 0
-0.069481 0.076500 0
-0.078473 0.076698 0
-0.087425 0.076014 0
-0.096261 0.074479 0
-0.104909 0.072111 0
-0.113296 0.068925 0
-0.121351 0.064932 0
-0.129003 0.060140 0
-0.136178 0.054562 0
-0.142801 0.048218 0
-0.148797 0.041135 0
-0.154089 0.033352 0
-0.158597 0.024923 0
-0.162243 0.015917 0
-0.164951 0.006422 0
-0.166644 -0.003455 0
-0.167252 -0.013587 0
-0.166713 -0.023826 0
-0.164971 -0.034005 0
-0.161987 -0.043939 0
-0.157739 -0.053426 0
-0.152224 -0.062254 0
-0.145469 -0.070202 0
-0.137527 -0.077054 0
-0.128486 -0.082601 0
-0.118471 -0.086652 0
-0.107642 -0.089051 0
-0.096195 -0.089677 0
-0.084359 -0.088466 0
-0.072389 -0.085413 0
-0.060558 -0.080581 0
-0.049146 -0.074106 0
-0.038431 -0.066197 0
-0.028673 -0.057130 0
-0.020102 -0.047242 0
-0.012909 -0.036919 0
-0.007240 -0.026584 0
-0.003184 -0.016684 0
-0.000778 -0.007673 0
0.000000 -0.000000 0
0.000000 -0.000000 0
-0.001080 0.015441 0
-0.003982 0.029256 0
-0.008399 0.041402 0
-0.014062 0.051894 0
-0.020736 0.060790 0
-0.028215 0.068169 0
-0.036323 0.074129 0
-0.044910 0.078768 0
-0.053845 0.082181 0
-0.063016 0.084454 0
-0.072325 0.085662 0
-0.081682 0.085864 0
-0.091008 0.085107 0
-0.100229 0.083424 0
-0.109273 0.080837 0
-0.118070 0.077361 0
-0.126551 0.073007 0
-0.134646 0.067782 0
-0.142281 0.061698 0
-0.149384 0.054772 0
-0.155877 0.047029 0
-0.161681 0.038506 0
-0.166713 0.029257 0
-0.170891 0.019350 0
-0.174129 0.008873 0
-0.176343 -0.002064 0
-0.177452 -0.013329 0
-0.177377 -0.024767 0
-0.176052 -0.036200 0
-0.173417 -0.047426 0
-0.169433 -0.058227 0
-0.164080 -0.068364 0
-0.157366 -0.077590 0
-0.149328 -0.085654 0
-0.140043 -0.092311 0
-0.129626 -0.097332 0
-0.118235 -0.100520 0
-0.106072 -0.101718 0
-0.093379 -0.100828 0
-0.080432 -0.097819 0
-0.067535 -0.092737 0
-0.055006 -0.085716 0
-0.043162 -0.076971 0
-0.032310 -0.066801 0
-0.022724 -0.055579 0
-0.014639 -0.043737 0
-0.008235 -0.031750 0
-0.003634 -0.020124 0
-0.000891 -0.009371 0
0.000000 -0.000000 0
0.000000 -0.000000 0
-0.001120 0.017471 0
-0.004125 0.032986 0
-0.008697 0.046538 0
-0.014558 0.058179 0
-0.021460 0.067997 0
-0.029192 0.076106 0
-0.037573 0.082628 0
-0.046445 0.087686 0
-0.055677 0.091396 0
-0.065154 0.093860 0
-0.074777 0.095166 0
-0.084458 0.095382 0
-0.094119 0.094562 0
-0.103687 0.092744 0
-0.113092 0.089952 0
-0.122269 0.086203 0
-0.131149 0.081507 0
-0.139665 0.075870 0
-0.147746 0.069301 0
-0.155320 0.061814 0
-0.162310 0.053432 0
-0.168635 0.044189 0
-0.174210 0.034134 0
-0.178948 0.023333 0
-0.182757 0.011875 0
-0.185545 -0.000132 0
-0.187217 -0.012552 0
-0.187684 -0.025226 0
-0.186861 -0.037966 0
-0.184672 -0.050558 0
-0.181057 -0.062763 0
-0.175975 -0.074321 0
-0.169412 -0.084954 0
-0.161387 -0.094377 0
-0.151958 -0.102303 0
-0.141227 -0.108460 0
-0.129346 -0.112604 0
-0.116518 -0.114533 0
-0.102993 -0.114106 0
-0.089070 -0.111256 0
-0.075081 -0.106008 0
-0.061384 -0.098480 0
-0.048343 -0.088893 0
-0.036315 -0.077568 0
-0.025627 -0.064912 0
-0.016563 -0.051407 0
-0.009348 -0.037589 0
-0.004139 -0.024028 0
-0.001019 -0.011307 0
0.000000 -0.000000 0
0.000000 0.000000 0
-0.001151 0.019565 0
-0.004239 0.036834 0
-0.008938 0.051835 0
-0.014958 0.064657 0
-0.022048 0.075424 0
-0.029989 0.084282 0
-0.038594 0.091382 0
-0.047704 0.096872 0
-0.057183 0.100890 0
-0.066917 0.103554 0
-0.076805 0.104966 0
-0.086762 0.105206 0
-0.096710 0.104336 0
-0.106578 0.102397 0
-0.116302 0.099419 0