# vtk DataFile Version 2.0
generated by CFD-lab course output (written by Tobias Neckel) 
ASCII

DATASET STRUCTURED_GRID
DIMENSIONS  51 51 1 
POINTS 2601 float

0.000000 0.000000 0
0.020000 0.000000 0
0.040000 0.000000 0
0.060000 0.000000 0
0.080000 0.000000 0
0.100000 0.000000 0
0.120000 0.000000 0
0.140000 0.000000 0
0.160000 0.000000 0
0.180000 0.000000 0
0.200000 0.000000 0
0.220000 0.000000 0
0.240000 0.000000 0
0.260000 0.000000 0
0.280000 0.000000 0
0.300000 0.000000 0
0.320000 0.000000 0
0.340000 0.000000 0
0.360000 0.000000 0
0.380000 0.000000 0
0.400000 0.000000 0
0.420000 0.000000 0
0.440000 0.000000 0
0.460000 0.000000 0
0.480000 0.000000 0
0.500000 0.000000 0
0.520000 0.000000 0
0.540000 0.000000 0
0.560000 0.000000 0
0.580000 0.000000 0
0.600000 0.000000 0
0.620000 0.000000 0
0.640000 0.000000 0
0.660000 0.000000 0
0.680000 0.000000 0
0.700000 0.000000 0
0.720000 0.000000 0
0.740000 0.000000 0
0.760000 0.000000 0
0.780000 0.000000 0
0.800000 0.000000 0
0.820000 0.000000 0
0.840000 0.000000 0
0.860000 0.000000 0
0.880000 0.000000 0
0.900000 0.000000 0
0.920000 0.000000 0
0.940000 0.000000 0
0.960000 0.000000 0
0.980000 0.000000 0
1.000000 0.000000 0
0.000000 0.020000 0
0.020000 0.020000 0
0.040000 0.020000 0
0.060000 0.020000 0
0.080000 0.020000 0
0.100000 0.020000 0
0.120000 0.020000 0
0.140000 0.020000 0
0.160000 0.020000 0
0.180000 0.020000 0
0.200000 0.020000 0
0.220000 0.020000 0
0.240000 0.020000 0
0.260000 0.020000 0
0.280000 0.020000 0
0.300000 0.020000 0
0.320000 0.020000 0
0.340000 0.020000 0
0.360000 0.020000 0
0.380000 0.020000 0
0.400000 0.020000 0
0.420000 0.020000 0
0.440000 0.020000 0
0.460000 0.020000 0
0.480000 0.020000 0
0.500000 0.020000 0
0.520000 0.020000 0
0.540000 0.020000 0
0.560000 0.020000 0
0.580000 0.020000 0
0.600000 0.020000 0
0.620000 0.020000 0
0.640000 0.020000 0
0.660000 0.020000 0
0.680000 0.020000 0
0.700000 0.020000 0
0.720000 0.020000 0
0.740000 0.020000 0
0.760000 0.020000 0
0.780000 0.020000 0
0.800000 0.020000 0
0.820000 0.020000 0
0.840000 0.020000 0
0.860000 0.020000 0
0.880000 0.020000 0
0.900000 0.020000 0
0.920000 0.020000 0
0.940000 0.020000 0
0.960000 0.020000 0
0.980000 0.020000 0
1.000000 0.020000 0
0.000000 0.040000 0
0.020000 0.040000 0
0.040000 0.040000 0
0.060000 0.040000 0
0.080000 0.040000 0
0.100000 0.040000 0
0.120000 0.040000 0
0.140000 0.040000 0
0.160000 0.040000 0
0.180000 0.040000 0
0.200000 0.040000 0
0.220000 0.040000 0
0.240000 0.040000 0
0.260000 0.040000 0
0.280000 0.040000 0
0.300000 0.040000 0
0.320000 0.040000 0
0.340000 0.040000 0
0.360000 0.040000 0
0.380000 0.040000 0
0.400000 0.040000 0
0.420000 0.040000 0
0.440000 0.040000 0
0.460000 0.040000 0
0.480000 0.040000 0
0.500000 0.040000 0
0.520000 0.040000 0
0.540000 0.040000 0
0.560000 0.040000 0
0.580000 0.040000 0
0.600000 0.040000 0
0.620000 0.040000 0
0.640000 0.040000 0
0.660000 0.040000 0
0.680000 0.040000 0
0.700000 0.040000 0
0.720000 0.040000 0
0.740000 0.040000 0
0.760000 0.040000 0
0.780000 0.040000 0
0.800000 0.040000 0
0.820000 0.040000 0
0.840000 0.040000 0
0.860000 0.040000 0
0.880000 0.040000 0
0.900000 0.040000 0
0.920000 0.040000 0
0.940000 0.040000 0
0.960000 0.040000 0
0.980000 0.040000 0
1.000000 0.040000 0
0.000000 0.060000 0
0.020000 0.060000 0
0.040000 0.060000 0
0.060000 0.060000 0
0.080000 0.060000 0
0.100000 0.060000 0
0.120000 0.060000 0
0.140000 0.060000 0
0.160000 0.060000 0
0.180000 0.060000 0
0.200000 0.060000 0
0.220000 0.060000 0
0.240000 0.060000 0
0.260000 0.060000 0
0.280000 0.060000 0
0.300000 0.060000 0
0.320000 0.060000 0
0.340000 0.060000 0
0.360000 0.060000 0
0.380000 0.060000 0
0.400000 0.060000 0
0.420000 0.060000 0
0.440000 0.060000 0
0.460000 0.060000 0
0.480000 0.060000 0
0.500000 0.060000 0
0.520000 0.060000 0
0.540000 0.060000 0
0.560000 0.060000 0
0.580000 0.060000 0
0.600000 0.060000 0
0.620000 0.060000 0
0.640000 0.060000 0
0.660000 0.060000 0
0.680000 0.060000 0
0.700000 0.060000 0
0.720000 0.060000 0
0.740000 0.060000 0
0.760000 0.060000 0
0.780000 0.060000 0
0.800000 0.060000 0
0.820000 0.060000 0
0.840000 0.060000 0
0.860000 0.060000 0
0.880000 0.060000 0
0.900000 0.060000 0
0.920000 0.060000 0
0.940000 0.060000 0
0.960000 0.060000 0
0.980000 0.060000 0
1.000000 0.060000 0
0.000000 0.080000 0
0.020000 0.080000 0
0.040000 0.080000 0
0.060000 0.080000 0
0.080000 0.080000 0
0.100000 0.080000 0
0.120000 0.080000 0
0.140000 0.080000 0
0.160000 0.080000 0
0.180000 0.080000 0
0.200000 0.080000 0
0.220000 0.080000 0
0.240000 0.080000 0
0.260000 0.080000 0
0.280000 0.080000 0
0.300000 0.080000 0
0.320000 0.080000 0
0.340000 0.080000 0
0.360000 0.080000 0
0.380000 0.080000 0
0.400000 0.080000 0
0.420000 0.080000 0
0.440000 0.080000 0
0.460000 0.080000 0
0.480000 0.080000 0
0.500000 0.080000 0
0.520000 0.080000 0
0.540000 0.080000 0
0.560000 0.080000 0
0.580000 0.080000 0
0.600000 0.080000 0
0.620000 0.080000 0
0.640000 0.080000 0
0.660000 0.080000 0
0.680000 0.080000 0
0.700000 0.080000 0
0.720000 0.080000 0
0.740000 0.080000 0
0.760000 0.080000 0
0.780000 0.080000 0
0.800000 0.080000 0
0.820000 0.080000 0
0.840000 0.080000 0
0.860000 0.080000 0
0.880000 0.080000 0
0.900000 0.080000 0
0.920000 0.080000 0
0.940000 0.080000 0
0.960000 0.080000 0
0.980000 0.080000 0
1.000000 0.080000 0
0.000000 0.100000 0
0.020000 0.100000 0
0.040000 0.100000 0
0.060000 0.100000 0
0.080000 0.100000 0
0.100000 0.100000 0
0.120000 0.100000 0
0.140000 0.100000 0
0.160000 0.100000 0
0.180000 0.100000 0
0.200000 0.100000 0
0.220000 0.100000 0
0.240000 0.100000 0
0.260000 0.100000 0
0.280000 0.100000 0
0.300000 0.100000 0
0.320000 0.100000 0
0.340000 0.100000 0
0.360000 0.100000 0
0.380000 0.100000 0
0.400000 0.100000 0
0.420000 0.100000 0
0.440000 0.100000 0
0.460000 0.100000 0
0.480000 0.100000 0
0.500000 0.100000 0
0.520000 0.100000 0
0.540000 0.100000 0
0.560000 0.100000 0
0.580000 0.100000 0
0.600000 0.100000 0
0.620000 0.100000 0
0.640000 0.100000 0
0.660000 0.100000 0
0.680000 0.100000 0
0.700000 0.100000 0
0.720000 0.100000 0
0.740000 0.100000 0
0.760000 0.100000 0
0.780000 0.100000 0
0.800000 0.100000 0
0.820000 0.100000 0
0.840000 0.100000 0
0.860000 0.100000 0
0.880000 0.100000 0
0.900000 0.100000 0
0.920000 0.100000 0
0.940000 0.100000 0
0.960000 0.100000 0
0.980000 0.100000 0
1.000000 0.100000 0
0.000000 0.120000 0
0.020000 0.120000 0
0.040000 0.120000 0
0.060000 0.120000 0
0.080000 0.120000 0
0.100000 0.120000 0
0.120000 0.120000 0
0.140000 0.120000 0
0.160000 0.120000 0
0.180000 0.120000 0
0.200000 0.120000 0
0.220000 0.120000 0
0.240000 0.120000 0
0.260000 0.120000 0
0.280000 0.120000 0
0.300000 0.120000 0
0.320000 0.120000 0
0.340000 0.120000 0
0.360000 0.120000 0
0.380000 0.120000 0
0.400000 0.120000 0
0.420000 0.120000 0
0.440000 0.120000 0
0.460000 0.120000 0
0.480000 0.120000 0
0.500000 0.120000 0
0.520000 0.120000 0
0.540000 0.120000 0
0.560000 0.120000 0
0.580000 0.120000 0
0.600000 0.120000 0
0.620000 0.120000 0
0.640000 0.120000 0
0.660000 0.120000 0
0.680000 0.120000 0
0.700000 0.120000 0
0.720000 0.120000 0
0.740000 0.120000 0
0.760000 0.120000 0
0.780000 0.120000 0
0.800000 0.120000 0
0.820000 0.120000 0
0.840000 0.120000 0
0.860000 0.120000 0
0.880000 0.120000 0
0.900000 0.120000 0
0.920000 0.120000 0
0.940000 0.120000 0
0.960000 0.120000 0
0.980000 0.120000 0
1.000000 0.120000 0
0.000000 0.140000 0
0.020000 0.140000 0
0.040000 0.140000 0
0.060000 0.140000 0
0.080000 0.140000 0
0.100000 0.140000 0
0.120000 0.140000 0
0.140000 0.140000 0
0.160000 0.140000 0
0.180000 0.140000 0
0.200000 0.140000 0
0.220000 0.140000 0
0.240000 0.140000 0
0.260000 0.140000 0
0.280000 0.140000 0
0.300000 0.140000 0
0.320000 0.140000 0
0.340000 0.140000 0
0.360000 0.140000 0
0.380000 0.140000 0
0.400000 0.140000 0
0.420000 0.140000 0
0.440000 0.140000 0
0.460000 0.140000 0
0.480000 0.140000 0
0.500000 0.140000 0
0.520000 0.140000 0
0.540000 0.140000 0
0.560000 0.140000 0
0.580000 0.140000 0
0.600000 0.140000 0
0.620000 0.140000 0
0.640000 0.140000 0
0.660000 0.140000 0
0.680000 0.140000 0
0.700000 0.140000 0
0.720000 0.140000 0
0.740000 0.140000 0
0.760000 0.140000 0
0.780000 0.140000 0
0.800000 0.140000 0
0.820000 0.140000 0
0.840000 0.140000 0
0.860000 0.140000 0
0.880000 0.140000 0
0.900000 0.140000 0
0.920000 0.140000 0
0.940000 0.140000 0
0.960000 0.140000 0
0.980000 0.140000 0
1.000000 0.140000 0
0.000000 0.160000 0
0.020000 0.160000 0
0.040000 0.160000 0
0.060000 0.160000 0
0.080000 0.160000 0
0.100000 0.160000 0
0.120000 0.160000 0
0.140000 0.160000 0
0.160000 0.160000 0
0.180000 0.160000 0
0.200000 0.160000 0
0.220000 0.160000 0
0.240000 0.160000 0
0.260000 0.160000 0
0.280000 0.160000 0
0.300000 0.160000 0
0.320000 0.160000 0
0.340000 0.160000 0
0.360000 0.160000 0
0.380000 0.160000 0
0.400000 0.160000 0
0.420000 0.160000 0
0.440000 0.160000 0
0.460000 0.160000 0
0.480000 0.160000 0
0.500000 0.160000 0
0.520000 0.160000 0
0.540000 0.160000 0
0.560000 0.160000 0
0.580000 0.160000 0
0.600000 0.160000 0
0.620000 0.160000 0
0.640000 0.160000 0
0.660000 0.160000 0
0.680000 0.160000 0
0.700000 0.160000 0
0.720000 0.160000 0
0.740000 0.160000 0
0.760000 0.160000 0
0.780000 0.160000 0
0.800000 0.160000 0
0.820000 0.160000 0
0.840000 0.160000 0
0.860000 0.160000 0
0.880000 0.160000 0
0.900000 0.160000 0
0.920000 0.160000 0
0.940000 0.160000 0
0.960000 0.160000 0
0.980000 0.160000 0
1.000000 0.160000 0
0.000000 0.180000 0
0.020000 0.180000 0
0.040000 0.180000 0
0.060000 0.180000 0
0.080000 0.180000 0
0.100000 0.180000 0
0.120000 0.180000 0
0.140000 0.180000 0
0.160000 0.180000 0
0.180000 0.180000 0
0.200000 0.180000 0
0.220000 0.180000 0
0.240000 0.180000 0
0.260000 0.180000 0
0.280000 0.180000 0
0.300000 0.180000 0
0.320000 0.180000 0
0.340000 0.180000 0
0.360000 0.180000 0
0.380000 0.180000 0
0.400000 0.180000 0
0.420000 0.180000 0
0.440000 0.180000 0
0.460000 0.180000 0
0.480000 0.180000 0
0.500000 0.180000 0
0.520000 0.180000 0
0.540000 0.180000 0
0.560000 0.180000 0
0.580000 0.180000 0
0.600000 0.180000 0
0.620000 0.180000 0
[...]
POINT_DATA 2601 

VECTORS velocity float
0.000000 0.000000 0
-0.000000 0.000000 0
0.000000 0.000000 0
0.000001 0.000000 0
0.000000 0.000000 0
0.000000 0.000000 0
-0.000000 0.000000 0
-0.000000 0.000000 0
-0.000000 0.000000 0
0.000000 0.000000 0
0.000000 0.000000 0
0.000000 0.000000 0
0.000000 0.000000 0
-0.000000 0.000000 0
-0.000000 0.000000 0
-0.000000 0.000000 0
-0.000000 0.000000 0
-0.000000 0.000000 0
-0.000000 0.000000 0
0.000000 0.000000 0
0.000000 0.000000 0
0.000000 0.000000 0
0.000000 0.000000 0
0.000000 0.000000 0
-0.000000 0.000000 0
-0.000000 0.000000 0
-0.000000 0.000000 0
-0.000000 0.000000 0
-0.000000 0.000000 0
-0.000000 0.000000 0
-0.000000 0.000000 0
0.000000 0.000000 0
0.000000 0.000000 0
0.000000 0.000000 0
0.000000 0.000000 0
0.000000 0.000000 0
-0.000000 0.000000 0
-0.000000 0.000000 0
-0.000000 0.000000 0
-0.000000 0.000000 0
-0.000000 0.000000 0
-0.000000 0.000000 0
-0.000000 0.000000 0
0.000000 0.000000 0
0.000000 0.000000 0
0.000000 0.000000 0
0.000000 0.000000 0
0.000000 0.000000 0
0.000000 0.000000 0
0.000000 0.000000 0
0.000000 0.000000 0
0.000000 -0.000000 0
0.000060 -0.000060 0
0.000082 -0.000023 0
-0.000014 0.000056 0
-0.000255 0.000144 0
-0.000645 0.000228 0
-0.001171 0.000301 0
-0.001815 0.000362 0
-0.002556 0.000411 0
-0.003374 0.000449 0
-0.004251 0.000476 0
-0.005168 0.000493 0
-0.006109 0.000502 0
-0.007058 0.000504 0
-0.008003 0.000498 0
-0.008930 0.000486 0
-0.009826 0.000467 0
-0.010679 0.000442 0
-0.011477 0.000410 0
-0.012206 0.000371 0
-0.012854 0.000326 0
-0.013410 0.000274 0
-0.013861 0.000216 0
-0.014196 0.000152 0
-0.014406 0.000082 0
-0.014482 0.000009 0
-0.014419 -0.000068 0
-0.014211 -0.000147 0
-0.013859 -0.000225 0
-0.013365 -0.000301 0
-0.012736 -0.000373 0
-0.011979 -0.000439 0
-0.011111 -0.000496 0
-0.010146 -0.000544 0
-0.009106 -0.000579 0
-0.008014 -0.000600 0
-0.006895 -0.000607 0
-0.005777 -0.000598 0
-0.004686 -0.000574 0
-0.003651 -0.000535 0
-0.002696 -0.000481 0
-0.001847 -0.000416 0
-0.001122 -0.000339 0
-0.000539 -0.000255 0
-0.000106 -0.000167 0
0.000173 -0.000079 0
0.000304 0.000002 0
0.000306 0.000066 0
0.000213 0.000100 0
0.000082 0.000082 0
0.000000 0.000000 0
0.000000 0.000000 0
0.000024 -0.000081 0
-0.000075 0.000075 0
-0.000385 0.000337 0
-0.000944 0.000631 0
-0.001753 0.000915 0
-0.002796 0.001169 0
-0.004044 0.001385 0
-0.005464 0.001560 0
-0.007023 0.001696 0
-0.008686 0.001794 0
-0.010421 0.001858 0
-0.012200 0.001890 0
-0.013993 0.001895 0
-0.015774 0.001872 0
-0.017519 0.001823 0
-0.019203 0.001749 0
-0.020802 0.001650 0
-0.022292 0.001526 0
-0.023651 0.001378 0
-0.024854 0.001204 0
-0.025881 0.001007 0
-0.026709 0.000786 0
-0.027319 0.000545 0
-0.027694 0.000286 0
-0.027820 0.000012 0
-0.027686 -0.000271 0
-0.027287 -0.000559 0
-0.026622 -0.000846 0
-0.025696 -0.001124 0
-0.024522 -0.001386 0
-0.023118 -0.001625 0
-0.021508 -0.001833 0
-0.019723 -0.002004 0
-0.017801 -0.002132 0
-0.015782 -0.002211 0
-0.013712 -0.002237 0
-0.011638 -0.002209 0
-0.009611 -0.002126 0
-0.007678 -0.001990 0
-0.005886 -0.001804 0
-0.004275 -0.001574 0
-0.002882 -0.001308 0
-0.001734 -0.001017 0
-0.000849 -0.000712 0
-0.000230 -0.000410 0
0.000132 -0.000133 0
0.000268 0.000092 0
0.000231 0.000224 0
0.000102 0.000213 0
0.000000 0.000000 0
0.000000 0.000001 0
-0.000056 0.000016 0
-0.000349 0.000387 0
-0.000948 0.000924 0
-0.001878 0.001510 0
-0.003137 0.002079 0
-0.004702 0.002592 0
-0.006536 0.003032 0
-0.008598 0.003391 0
-0.010844 0.003670 0
-0.013229 0.003874 0
-0.015710 0.004006 0
-0.018246 0.004073 0
-0.020798 0.004078 0
-0.023330 0.004024 0
-0.025805 0.003914 0
-0.028190 0.003750 0
-0.030449 0.003531 0
-0.032551 0.003259 0
-0.034462 0.002934 0
-0.036150 0.002557 0
-0.037584 0.002129 0
-0.038736 0.001654 0
-0.039579 0.001137 0
-0.040090 0.000583 0
-0.040251 0.000000 0
-0.040049 -0.000602 0
-0.039477 -0.001211 0
-0.038536 -0.001815 0
-0.037234 -0.002400 0
-0.035587 -0.002951 0
-0.033622 -0.003453 0
-0.031372 -0.003891 0
-0.028879 -0.004251 0
-0.026194 -0.004521 0
-0.023371 -0.004689 0
-0.020473 -0.004750 0
-0.017564 -0.004699 0
-0.014710 -0.004534 0
-0.011975 -0.004260 0
-0.009423 -0.003885 0
-0.007108 -0.003419 0
-0.005079 -0.002880 0
-0.003374 -0.002289 0
-0.002014 -0.001671 0
-0.001008 -0.001060 0
-0.000344 -0.000497 0
0.000013 -0.000032 0
0.000123 0.000266 0
0.000076 0.000313 0
0.000000 0.000000 0
0.000000 0.000001 0
-0.000153 0.000269 0
-0.000676 0.000965 0
-0.001603 0.001865 0
-0.002940 0.002820 0
-0.004672 0.003739 0
-0.006766 0.004569 0
-0.009178 0.005282 0
-0.011859 0.005868 0
-0.014755 0.006326 0
-0.017815 0.006659 0
-0.020986 0.006874 0
-0.024219 0.006979 0
-0.027466 0.006979 0
-0.030680 0.006879 0
-0.033818 0.006683 0
-0.036835 0.006394 0
-0.039690 0.006012 0
-0.042340 0.005539 0
-0.044744 0.004976 0
-0.046864 0.004326 0
-0.048661 0.003592 0
-0.050101 0.002781 0
-0.051150 0.001899 0
-0.051783 0.000958 0
-0.051977 -0.000029 0
-0.051717 -0.001045 0
-0.050996 -0.002072 0
-0.049816 -0.003089 0
-0.048187 -0.004072 0
-0.046129 -0.004997 0
-0.043675 -0.005840 0
-0.040865 -0.006576 0
-0.037751 -0.007183 0
-0.034392 -0.007640 0
-0.030857 -0.007931 0
-0.027219 -0.008044 0
-0.023557 -0.007972 0
-0.019950 -0.007715 0
-0.016477 -0.007277 0
-0.013214 -0.006671 0
-0.010227 -0.005918 0
-0.007577 -0.005043 0
-0.005310 -0.004082 0
-0.003455 -0.003077 0
-0.002025 -0.002080 0
-0.001009 -0.001154 0
-0.000373 -0.000376 0
-0.000058 0.000160 0
0.000026 0.000336 0
0.000000 0.000000 0
0.000000 0.000000 0
-0.000254 0.000692 0
-0.001021 0.001836 0
-0.002295 0.003187 0
-0.004058 0.004580 0
-0.006275 0.005905 0
-0.008902 0.007099 0
-0.011886 0.008125 0
-0.015169 0.008968 0
-0.018690 0.009626 0
-0.022391 0.010105 0
-0.026211 0.010410 0
-0.030094 0.010553 0
-0.033984 0.010539 0
-0.037829 0.010376 0
-0.041576 0.010070 0
-0.045175 0.009622 0
-0.048574 0.009036 0
-0.051727 0.008314 0
-0.054584 0.007458 0
-0.057100 0.006473 0
-0.059231 0.005365 0
-0.060938 0.004143 0
-0.062182 0.002819 0
-0.062934 0.001410 0
-0.063169 -0.000065 0
-0.062870 -0.001582 0
-0.062028 -0.003112 0
-0.060646 -0.004625 0
-0.058736 -0.006087 0
-0.056321 -0.007463 0
-0.053438 -0.008717 0
-0.050133 -0.009815 0
-0.046464 -0.010724 0
-0.042500 -0.011414 0
-0.038318 -0.011862 0
-0.034003 -0.012050 0
-0.029642 -0.011968 0
-0.025329 -0.011614 0
-0.021155 -0.010997 0
-0.017205 -0.010135 0
-0.013560 -0.009055 0
-0.010290 -0.007797 0
-0.007450 -0.006411 0
-0.005077 -0.004957 0
-0.003191 -0.003507 0
-0.001786 -0.002148 0
-0.000833 -0.000983 0
-0.000277 -0.000133 0
-0.000036 0.000255 0
0.000000 0.000000 0
0.000000 -0.000000 0
-0.000353 0.001288 0
-0.001365 0.003006 0
-0.002992 0.004902 0
-0.005186 0.006801 0
-0.007894 0.008584 0
-0.011054 0.010180 0
-0.014602 0.011548 0
-0.018473 0.012672 0
-0.022598 0.013547 0
-0.026912 0.014179 0
-0.031349 0.014577 0
-0.035846 0.014753 0
-0.040342 0.014715 0
-0.044778 0.014471 0
-0.049095 0.014029 0
-0.053235 0.013392 0
-0.057144 0.012564 0
-0.060767 0.011548 0
-0.064049 0.010349 0
-0.066941 0.008974 0
-0.069392 0.007430 0
-0.071358 0.005732 0
-0.072798 0.003896 0
-0.073678 0.001945 0
-0.073971 -0.000093 0
-0.073658 -0.002186 0
-0.072728 -0.004296 0
-0.071184 -0.006381 0
-0.069038 -0.008397 0
-0.066316 -0.010295 0
-0.063057 -0.012028 0
-0.059310 -0.013550 0
-0.055140 -0.014816 0
-0.050621 -0.015786 0
-0.045838 -0.016429 0
-0.040884 -0.016720 0
-0.035860 -0.016646 0
-0.030866 -0.016202 0
-0.026006 -0.015401 0
-0.021377 -0.014265 0
-0.017072 -0.012832 0
-0.013170 -0.011154 0
-0.009739 -0.009295 0
-0.006824 -0.007336 0
-0.004454 -0.005371 0
-0.002630 -0.003512 0
-0.001333 -0.001884 0
-0.000514 -0.000637 0
-0.000101 0.000058 0
0.000000 0.000000 0
0.000000 -0.000000 0
-0.000448 0.002056 0
-0.001700 0.004475 0
-0.003677 0.007010 0
-0.006300 0.009482 0
-0.009494 0.011773 0
-0.013181 0.013807 0
-0.017284 0.015543 0
-0.021729 0.016964 0
-0.026439 0.018065 0
-0.031344 0.018855 0
-0.036372 0.019345 0
-0.041454 0.019546 0
-0.046526 0.019471 0
-0.051522 0.019129 0
-0.056379 0.018527 0
-0.061035 0.017672 0
-0.065429 0.016567 0
-0.069501 0.015219 0
-0.073194 0.013632 0
-0.076451 0.011816 0
-0.079219 0.009782 0
-0.081449 0.007550 0
-0.083097 0.005140 0
-0.084125 0.002583 0
-0.084502 -0.000086 0
-0.084206 -0.002825 0
-0.083226 -0.005586 0
-0.081562 -0.008315 0
-0.079227 -0.010955 0
-0.076245 -0.013445 0
-0.072657 -0.015724 0
-0.068515 -0.017732 0
-0.063886 -0.019413 0
-0.058851 -0.020716 0
-0.053500 -0.021598 0
-0.047934 -0.022028 0
-0.042262 -0.021986 0
-0.036596 -0.021468 0
-0.031051 -0.020486 0
-0.025736 -0.019068 0
-0.020755 -0.017262 0
-0.016201 -0.015131 0
-0.012153 -0.012757 0
-0.008669 -0.010242 0
-0.005786 -0.007700 0
-0.003519 -0.005269 0
-0.001855 -0.003100 0
-0.000758 -0.001365 0
-0.000166 -0.000259 0
0.000000 0.000000 0
0.000000 -0.000000 0
-0.000538 0.002989 0
-0.002024 0.006236 0
-0.004341 0.009503 0
-0.007384 0.012618 0
-0.011054 0.015464 0
-0.015256 0.017970 0
-0.019902 0.020096 0
-0.024904 0.021827 0
-0.030182 0.023162 0
-0.035657 0.024111 0
-0.041253 0.024688 0
-0.046898 0.024907 0
-0.052521 0.024782 0
-0.058054 0.024324 0
-0.063429 0.023541 0
-0.068581 0.022441 0
-0.073445 0.021030 0
-0.077957 0.019313 0
-0.082055 0.017299 0
-0.085679 0.014999 0
-0.088772 0.012429 0
-0.091280 0.009610 0
-0.093157 0.006572 0
-0.094359 0.003349 0
-0.094854 -0.000012 0
-0.094615 -0.003462 0
-0.093629 -0.006939 0
-0.091892 -0.010380 0
-0.089414 -0.013714 0
-0.086221 -0.016865 0
-0.082350 -0.019759 0
-0.077855 -0.022321 0
-0.072805 -0.024480 0
-0.067284 -0.026173 0
-0.061388 -0.027346 0
-0.055224 -0.027958 0
-0.048911 -0.027983 0
-0.042570 -0.027414 0
-0.036327 -0.026262 0
-0.030306 -0.024561 0
-0.024625 -0.022367 0
-0.019389 -0.019756 0
-0.014692 -0.016828 0
-0.010605 -0.013703 0
-0.007181 -0.010521 0
-0.004444 -0.007442 0
-0.002394 -0.004645 0
-0.001007 -0.002326 0
-0.000232 -0.000700 0
0.000000 0.000000 0
0.000000 -0.000000 0
-0.000624 0.004080 0
-0.002332 0.008278 0
-0.004977 0.012370 0
-0.008426 0.016195 0
-0.012558 0.019645 0
-0.017260 0.022655 0
-0.022431 0.025191 0
-0.027975 0.027244 0
-0.033801 0.028818 0
-0.039826 0.029926 0
-0.045970 0.030586 0
-0.052156 0.030814 0
-0.058311 0.030627 0
-0.064362 0.030037 0
-0.070240 0.029054 0
-0.075876 0.027687 0
-0.081202 0.025943 0
-0.086150 0.023828 0
-0.090655 0.021354 0
-0.094655 0.018533 0
-0.098088 0.015384 0
-0.100898 0.011935 0
-0.103032 0.008219 0
-0.104445 0.004280 0
-0.105098 0.000169 0
-0.104961 -0.004050 0
-0.104017 -0.008309 0
-0.102258 -0.012529 0
-0.099690 -0.016625 0
-0.096334 -0.020509 0
-0.092227 -0.024090 0
-0.087421 -0.027276 0
-0.081986 -0.029984 0
-0.076006 -0.032134 0
-0.069583 -0.033658 0
-0.062830 -0.034505 0
-0.055873 -0.034641 0
-0.048845 -0.034052 0
-0.041885 -0.032750 0
-0.035129 -0.030771 0
-0.028713 -0.028179 0
-0.022757 -0.025064 0
-0.017371 -0.021541 0
-0.012645 -0.017753 0
-0.008644 -0.013862 0
-0.005408 -0.010055 0
-0.002952 -0.006536 0
-0.001261 -0.003528 0
-0.000297 -0.001266 0
0.000000 0.000000 0
0.000000 0.000000 0
-0.000705 0.005321 0
-0.002625 0.010589 0
-0.005583 0.015596 0
-0.009421 0.020197 0
-0.013995 0.024298 0
-0.019178 0.027843 0
-0.024855 0.030810 0
-0.030918 0.033197 0
-0.037272 0.035014 0
-0.043827 0.036280 0
-0.050499 0.037018 0
-0.057207 0.037248 0
-0.063876 0.036988 0
-0.070431 0.036253 0
-0.076799 0.035055 0
-0.082911 0.033403 0
-0.088694 0.031304 0
-0.094081 0.028767 0
-0.099003 0.025805 0
-0.103394 0.022432 0
-0.107189 0.018671 0
-0.110328 0.014554 0
-0.112755 0.010118 0
-0.114419 0.005415 0
-0.115277 0.000504 0
-0.115295 -0.004542 0
-0.114447 -0.009643 0
-0.112722 -0.014708 0
-0.110119 -0.019637 0
-0.106655 -0.024328 0
-0.102362 -0.028671 0
-0.097289 -0.032562 0
-0.091505 -0.035895 0
-0.085094 -0.038576 0
-0.078160 -0.040523 0
-0.070823 -0.041668 0
-0.063216 -0.041968 0
-0.055485 -0.041402 0
-0.047780 -0.039978 0
-0.040255 -0.037733 0
-0.033062 -0.034739 0
-0.026341 -0.031097 0
-0.020220 -0.026940 0
-0.014809 -0.022430 0
-0.010191 -0.017758 0
-0.006423 -0.013134 0
-0.003534 -0.008792 0
-0.001524 -0.004981 0
-0.000363 -0.001960 0
0.000000 0.000000 0
0.000000 0.000000 0
-0.000782 0.006705 0
-0.002902 0.013156 0
-0.006155 0.019165 0
-0.010361 0.024606 0
-0.015356 0.029402 0
-0.020998 0.033514 0
-0.027156 0.036931 0
-0.033717 0.039662 0
-0.040576 0.041727 0
-0.047638 0.043153 0
-0.054816 0.043965 0
-0.062027 0.044191 0
-0.069193 0.043850 0
-0.076237 0.042960 0
-0.083086 0.041535 0
-0.089668 0.039583 0
-0.095909 0.037114 0
-0.101740 0.034137 0
-0.107090 0.030666 0
-0.111890 0.026718 0
-0.116073 0.022318 0
-0.119575 0.017501 0
-0.122334 0.012310 0
-0.124296 0.006802 0
-0.125412 0.001045 0
-0.125640 -0.004881 0
-0.124948 -0.010883 0
-0.123318 -0.016857 0
-0.120742 -0.022692 0
-0.117229 -0.028266 0
-0.112805 -0.033455 0
-0.107514 -0.038134 0
-0.101420 -0.042180 0
-0.094608 -0.045478 0
-0.087183 -0.047929 0
-0.079269 -0.049449 0
-0.071007 -0.049979 0
-0.062553 -0.049488 0
-0.054073 -0.047979 0
-0.045739 -0.045489 0
-0.037722 -0.042093 0
-0.030184 -0.037905 0
-0.023275 -0.033073 0
-0.017127 -0.027782 0
-0.011845 -0.022248 0
-0.007505 -0.016712 0
-0.004152 -0.011436 0
-0.001801 -0.006699 0
-0.000433 -0.002790 0
0.000000 0.000000 0
0.000000 0.000000 0
-0.000853 0.008223 0
-0.003160 0.015963 0
-0.006691 0.023056 0
-0.011242 0.029398 0
-0.016633 0.034934 0
-0.022706 0.039643 0
-0.029320 0.043530 0
-0.036351 0.046617 0
-0.043690 0.048935 0
-0.051235 0.050521 0
-0.058897 0.051407 0
-0.066590 0.051624 0
-0.074235 0.051198 0
-0.081754 0.050147 0
-0.089074 0.048486 0
-0.096120 0.046226 0
-0.102820 0.043377 0
-0.109101 0.039948 0
-0.114892 0.035955 0
-0.120122 0.031415 0
-0.124720 0.026356 0
-0.128620 0.020815 0
-0.131754 0.014840 0
-0.134064 0.008493 0
-0.135492 0.001848 0
-0.135991 -0.005005 0
-0.135520 -0.011965 0
-0.134052 -0.018914 0
-0.131570 -0.025726 0
-0.128073 -0.032265 0
-0.123580 -0.038387 0
-0.118126 -0.043946 0
-0.111771 -0.048800 0
-0.104595 -0.052813 0
-0.096703 -0.055862 0
-0.088223 -0.057845 0
-0.079302 -0.058684 0
-0.070109 -0.058335 0
-0.060825 -0.056791 0
-0.051640 -0.054085 0
-0.042747 -0.050295 0
-0.034335 -0.045543 0
-0.026578 -0.039996 0
-0.019634 -0.033861 0
-0.013632 -0.027380 0
-0.008672 -0.020826 0
-0.004818 -0.014496 0
-0.002099 -0.008701 0
-0.000507 -0.003762 0
0.000000 0.000000 0
0.000000 0.000000 0
-0.000919 0.009865 0
-0.003398 0.018993 0
-0.007185 0.027247 0
-0.012057 0.034549 0
-0.017817 0.040867 0
-0.024292 0.046201 0
-0.031332 0.050577 0
-0.038804 0.054032 0
-0.046593 0.056611 0
-0.054595 0.058360 0
-0.062715 0.059320 0
-0.070867 0.059528 0
-0.078971 0.059014 0
-0.086949 0.057799 0
-0.094727 0.055900 0
-0.102230 0.053329 0
-0.109387 0.050095 0
-0.116125 0.046210 0
-0.122369 0.041687 0
-0.128048 0.036546 0
-0.133090 0.030816 0
-0.137422 0.024535 0
-0.140974 0.017754 0
-0.143681 0.010540 0
-0.145480 0.002972 0
-0.146313 -0.004852 0
-0.146132 -0.012821 0
-0.144897 -0.020808 0
-0.142582 -0.028671 0
-0.139175 -0.036256 0
-0.134682 -0.043402 0
-0.129131 -0.049943 0
-0.122570 -0.055711 0
-0.115077 -0.060546 0
-0.106752 -0.064301 0
-0.097725 -0.066850 0
-0.088150 -0.068092 0
-0.078205 -0.067966 0
-0.068089 -0.066448 0
-0.058012 -0.063567 0
-0.048191 -0.059399 0
-0.038843 -0.054074 0
-0.030173 -0.047774 0
-0.022366 -0.040728 0
-0.015582 -0.033210 0
-0.009946 -0.025525 0
-0.005545 -0.018009 0
-0.002424 -0.011010 0
-0.000587 -0.004888 0
0.000000 -0.000000 0
0.000000 0.000000 0
-0.000979 0.011621 0
-0.003615 0.022229 0
-0.007637 0.031715 0
-0.012802 0.040030 0
-0.018899 0.047169 0
-0.025744 0.053158 0
-0.033176 0.058042 0
-0.041057 0.061878 0
-0.049264 0.064725 0
-0.057690 0.066642 0
-0.066239 0.067679 0
-0.074824 0.067880 0
-0.083364 0.067280 0
-0.091781 0.065903 0
-0.100002 0.063767 0
-0.107954 0.060887 0
-0.115563 0.057271 0
-0.122758 0.052930 0
-0.129465 0.047878 0
-0.135610 0.042135 0
-0.141119 0.035729 0
-0.145916 0.028699 0
-0.149928 0.021100 0
-0.153082 0.012998 0
-0.155308 0.004480 0
-0.156540 -0.004353 0
-0.156718 -0.013381 0
-0.155793 -0.022464 0
-0.153724 -0.031449 0
-0.150486 -0.040165 0
-0.146072 -0.048431 0
-0.140498 -0.056058 0
-0.133801 -0.062854 0
-0.126048 -0.068632 0
-0.117337 -0.073214 0
-0.107794 -0.076447 0
-0.097580 -0.078203 0
-0.086881 -0.078396 0
-0.075912 -0.076984 0
-0.064906 -0.073982 0
-0.054106 -0.069463 0
-0.043759 -0.063562 0
-0.034105 -0.056474 0
-0.025363 -0.048452 0
-0.017726 -0.039801 0
-0.011349 -0.030864 0
-0.006346 -0.022018 0
-0.002783 -0.013658 0
-0.000677 -0.006185 0
0.000000 -0.000000 0
0.000000 -0.000000 0
-0.001033 0.013480 0
-0.003810 0.025650 0
-0.008041 0.036433 0
-0.013469 0.045811 0
-0.019871 0.053809 0
-0.027050 0.060479 0
-0.034838 0.065890 0
-0.043090 0.070120 0
-0.051679 0.073244 0
-0.060495 0.075335 0
-0.069440 0.076454 0
-0.078427 0.076653 0
-0.087374 0.075971 0
-0.096207 0.074438 0
-0.104851 0.072073 0
-0.113234 0.068890 0
-0.121287 0.064900 0
-0.128936 0.060112 0
-0.136108 0.054539 0
-0.142730 0.048200 0
-0.148724 0.041122 0
-0.154014 0.033344 0
-0.158522 0.024920 0
-0.162168 0.015920 0
-0.164876 0.006430 0
-0.166570 -0.003441 0
-0.167179 -0.013568 0
-0.166641 -0.023803 0
-0.164901 -0.033978 0
-0.161920 -0.043907 0
-0.157674 -0.053390 0
-0.152163 -0.062214 0
-0.145410 -0.070160 0
-0.137472 -0.077010 0
-0.128436 -0.082556 0
-0.118425 -0.086607 0
-0.107600 -0.089005 0
-0.096158 -0.089633 0
-0.084326 -0.088424 0
-0.072361 -0.085373 0
-0.060534 -0.080545 0
-0.049127 -0.074074 0
-0.038417 -0.066170 0
-0.028662 -0.057107 0
-0.020094 -0.047224 0
-0.012904 -0.036905 0
-0.007237 -0.026575 0
-0.003183 -0.016679 0
-0.000777 -0.007671 0
0.000000 -0.000000 0
0.000000 -0.000000 0
-0.001080 0.015430 0
-0.003979 0.029236 0
-0.008394 0.041374 0
-0.014053 0.051860 0
-0.020723 0.060750 0
-0.028197 0.068126 0
-0.036301 0.074082 0
-0.044883 0.078719 0
-0.053814 0.082130 0
-0.062980 0.084403 0
-0.072284 0.085611 0
-0.081636 0.085815 0
-0.090959 0.085060 0
-0.100175 0.083379 0
-0.109216 0.080795 0
-0.118009 0.077323 0
-0.126487 0.072972 0
-0.134579 0.067751 0
-0.142212 0.061672 0
-0.149313 0.054751 0
-0.155805 0.047014 0
-0.161607 0.038497 0
-0.166639 0.029254 0
-0.170817 0.019352 0
-0.174055 0.008881 0
-0.176270 -0.002050 0
-0.177379 -0.013309 0
-0.177306 -0.024742 0
-0.175982 -0.036170 0
-0.173349 -0.047392 0
-0.169368 -0.058188 0
-0.164018 -0.068321 0
-0.157307 -0.077545 0
-0.149273 -0.085606 0
-0.139991 -0.092262 0
-0.129578 -0.097283 0
-0.118192 -0.100470 0
-0.106033 -0.101670 0
-0.093345 -0.100781 0
-0.080403 -0.097774 0
-0.067510 -0.092697 0
-0.054985 -0.085679 0
-0.043146 -0.076939 0
-0.032298 -0.066775 0
-0.022715 -0.055558 0
-0.014633 -0.043721 0
-0.008232 -0.031739 0
-0.003632 -0.020117 0
-0.000891 -0.009368 0
0.000000 -0.000000 0
0.000000 -0.000000 0
-0.001119 0.017459 0
-0.004122 0.032964 0
-0.008692 0.046508 0
-0.014549 0.058141 0
-0.021447 0.067953 0
-0.029175 0.076057 0
-0.037551 0.082576 0
-0.046419 0.087632 0
-0.055646 0.091341 0
-0.065119 0.093805 0
-0.074737 0.095111 0
-0.084414 0.095328 0
-0.094070 0.094510 0
-0.103634 0.092695 0
-0.113036 0.089907 0
-0.122209 0.086162 0
-0.131087 0.081469 0
-0.139600 0.075837 0
-0.147679 0.069273 0
-0.155251 0.061792 0
-0.162240 0.053416 0
-0.168564 0.044179 0
-0.174139 0.034130 0
-0.178876 0.023335 0
-0.182685 0.011883 0
-0.185473 -0.000117 0
-0.187146 -0.012532 0
-0.187615 -0.025200 0
-0.186793 -0.037934 0
-0.184605 -0.050521 0
-0.180992 -0.062722 0
-0.175913 -0.074276 0
-0.169353 -0.084906 0
-0.161331 -0.094326 0
-0.151905 -0.102250 0
-0.141179 -0.108406 0
-0.129302 -0.112550 0
-0.116478 -0.114480 0
-0.102958 -0.114054 0
-0.089039 -0.111208 0
-0.075055 -0.105962 0
-0.061362 -0.098439 0
-0.048326 -0.088858 0
-0.036302 -0.077538 0
-0.025618 -0.064888 0
-0.016557 -0.051389 0
-0.009345 -0.037577 0
-0.004137 -0.024021 0
-0.001019 -0.011303 0
0.000000 -0.000000 0
0.000000 -0.000000 0
-0.001150 0.019552 0
-0.004237 0.036810 0
-0.008933 0.051801 0
-0.014950 0.064615 0
-0.022036 0.075376 0
-0.029972 0.084229 0
-0.038573 0.091326 0
-0.047679 0.096814 0
-0.057153 0.100830 0
-0.066883 0.103494 0
-0.076766 0.104907 0
-0.086719 0.105149 0
-0.096663 0.104280 0
-0.106528 0.102345 0
-0.116248 0.099370 0