# vtk DataFile Version 2.0
generated by CFD-lab course output (written by Tobias Neckel) 
ASCII

DATASET STRUCTURED_GRID
DIMENSIONS  51 51 1 
POINTS 2601 float

0.000000 0.000000 0
0.020000 0.000000 0
0.040000 0.000000 0
0.060000 0.000000 0
0.080000 0.000000 0
0.100000 0.000000 0
0.120000 0.000000 0
0.140000 0.000000 0
0.160000 0.000000 0
0.180000 0.000000 0
0.200000 0.000000 0
0.220000 0.000000 0
0.240000 0.000000 0
0.260000 0.000000 0
0.280000 0.000000 0
0.300000 0.000000 0
0.320000 0.000000 0
0.340000 0.000000 0
0.360000 0.000000 0
0.380000 0.000000 0
0.400000 0.000000 0
0.420000 0.000000 0
0.440000 0.000000 0
0.460000 0.000000 0
0.480000 0.000000 0
0.500000 0.000000 0
0.520000 0.000000 0
0.540000 0.000000 0
0.560000 0.000000 0
0.580000 0.000000 0
0.600000 0.000000 0
0.620000 0.000000 0
0.640000 0.000000 0
0.660000 0.000000 0
0.680000 0.000000 0
0.700000 0.000000 0
0.720000 0.000000 0
0.740000 0.000000 0
0.760000 0.000000 0
0.780000 0.000000 0
0.800000 0.000000 0
0.820000 0.000000 0
0.840000 0.000000 0
0.860000 0.000000 0
0.880000 0.000000 0
0.900000 0.000000 0
0.920000 0.000000 0
0.940000 0.000000 0
0.960000 0.000000 0
0.980000 0.000000 0
1.000000 0.000000 0
0.000000 0.020000 0
0.020000 0.020000 0
0.040000 0.020000 0
0.060000 0.020000 0
0.080000 0.020000 0
0.100000 0.020000 0
0.120000 0.020000 0
0.140000 0.020000 0
0.160000 0.020000 0
0.180000 0.020000 0
0.200000 0.020000 0
0.220000 0.020000 0
0.240000 0.020000 0
0.260000 0.020000 0
0.280000 0.020000 0
0.300000 0.020000 0
0.320000 0.020000 0
0.340000 0.020000 0
0.360000 0.020000 0
0.380000 0.020000 0
0.400000 0.020000 0
0.420000 0.020000 0
0.440000 0.020000 0
0.460000 0.020000 0
0.480000 0.020000 0
0.500000 0.020000 0
0.520000 0.020000 0
0.540000 0.020000 0
0.560000 0.020000 0
0.580000 0.020000 0
0.600000 0.020000 0
0.620000 0.020000 0
0.640000 0.020000 0
0.660000 0.020000 0
0.680000 0.020000 0
0.700000 0.020000 0
0.720000 0.020000 0
0.740000 0.020000 0
0.760000 0.020000 0
0.780000 0.020000 0
0.800000 0.020000 0
0.820000 0.020000 0
0.840000 0.020000 0
0.860000 0.020000 0
0.880000 0.020000 0
0.900000 0.020000 0
0.920000 0.020000 0
0.940000 0.020000 0
0.960000 0.020000 0
0.980000 0.020000 0
1.000000 0.020000 0
0.000000 0.040000 0
0.020000 0.040000 0
0.040000 0.040000 0
0.060000 0.040000 0
0.080000 0.040000 0
0.100000 0.040000 0
0.120000 0.040000 0
0.140000 0.040000 0
0.160000 0.040000 0
0.180000 0.040000 0
0.200000 0.040000 0
0.220000 0.040000 0
0.240000 0.040000 0
0.260000 0.040000 0
0.280000 0.040000 0
0.300000 0.040000 0
0.320000 0.040000 0
0.340000 0.040000 0
0.360000 0.040000 0
0.380000 0.040000 0
0.400000 0.040000 0
0.420000 0.040000 0
0.440000 0.040000 0
0.460000 0.040000 0
0.480000 0.040000 0
0.500000 0.040000 0
0.520000 0.040000 0
0.540000 0.040000 0
0.560000 0.040000 0
0.580000 0.040000 0
0.600000 0.040000 0
0.620000 0.040000 0
0.640000 0.040000 0
0.660000 0.040000 0
0.680000 0.040000 0
0.700000 0.040000 0
0.720000 0.040000 0
0.740000 0.040000 0
0.760000 0.040000 0
0.780000 0.040000 0
0.800000 0.040000 0
0.820000 0.040000 0
0.840000 0.040000 0
0.860000 0.040000 0
0.880000 0.040000 0
0.900000 0.040000 0
0.920000 0.040000 0
0.940000 0.040000 0
0.960000 0.040000 0
0.980000 0.040000 0
1.000000 0.040000 0
0.000000 0.060000 0
0.020000 0.060000 0
0.040000 0.060000 0
0.060000 0.060000 0
0.080000 0.060000 0
0.100000 0.060000 0
0.120000 0.060000 0
0.140000 0.060000 0
0.160000 0.060000 0
0.180000 0.060000 0
0.200000 0.060000 0
0.220000 0.060000 0
0.240000 0.060000 0
0.260000 0.060000 0
0.280000 0.060000 0
0.300000 0.060000 0
0.320000 0.060000 0
0.340000 0.060000 0
0.360000 0.060000 0
0.380000 0.060000 0
0.400000 0.060000 0
0.420000 0.060000 0
0.440000 0.060000 0
0.460000 0.060000 0
0.480000 0.060000 0
0.500000 0.060000 0
0.520000 0.060000 0
0.540000 0.060000 0
0.560000 0.060000 0
0.580000 0.060000 0
0.600000 0.060000 0
0.620000 0.060000 0
0.640000 0.060000 0
0.660000 0.060000 0
0.680000 0.060000 0
0.700000 0.060000 0
0.720000 0.060000 0
0.740000 0.060000 0
0.760000 0.060000 0
0.780000 0.060000 0
0.800000 0.060000 0
0.820000 0.060000 0
0.840000 0.060000 0
0.860000 0.060000 0
0.880000 0.060000 0
0.900000 0.060000 0
0.920000 0.060000 0
0.940000 0.060000 0
0.960000 0.060000 0
0.980000 0.060000 0
1.000000 0.060000 0
0.000000 0.080000 0
0.020000 0.080000 0
0.040000 0.080000 0
0.060000 0.080000 0
0.080000 0.080000 0
0.100000 0.080000 0
0.120000 0.080000 0
0.140000 0.080000 0
0.160000 0.080000 0
0.180000 0.080000 0
0.200000 0.080000 0
0.220000 0.080000 0
0.240000 0.080000 0
0.260000 0.080000 0
0.280000 0.080000 0
0.300000 0.080000 0
0.320000 0.080000 0
0.340000 0.080000 0
0.360000 0.080000 0
0.380000 0.080000 0
0.400000 0.080000 0
0.420000 0.080000 0
0.440000 0.080000 0
0.460000 0.080000 0
0.480000 0.080000 0
0.500000 0.080000 0
0.520000 0.080000 0
0.540000 0.080000 0
0.560000 0.080000 0
0.580000 0.080000 0
0.600000 0.080000 0
0.620000 0.080000 0
0.640000 0.080000 0
0.660000 0.080000 0
0.680000 0.080000 0
0.700000 0.080000 0
0.720000 0.080000 0
0.740000 0.080000 0
0.760000 0.080000 0
0.780000 0.080000 0
0.800000 0.080000 0
0.820000 0.080000 0
0.840000 0.080000 0
0.860000 0.080000 0
0.880000 0.080000 0
0.900000 0.080000 0
0.920000 0.080000 0
0.940000 0.080000 0
0.960000 0.080000 0
0.980000 0.080000 0
1.000000 0.080000 0
0.000000 0.100000 0
0.020000 0.100000 0
0.040000 0.100000 0
0.060000 0.100000 0
0.080000 0.100000 0
0.100000 0.100000 0
0.120000 0.100000 0
0.140000 0.100000 0
0.160000 0.100000 0
0.180000 0.100000 0
0.200000 0.100000 0
0.220000 0.100000 0
0.240000 0.100000 0
0.260000 0.100000 0
0.280000 0.100000 0
0.300000 0.100000 0
0.320000 0.100000 0
0.340000 0.100000 0
0.360000 0.100000 0
0.380000 0.100000 0
0.400000 0.100000 0
0.420000 0.100000 0
0.440000 0.100000 0
0.460000 0.100000 0
0.480000 0.100000 0
0.500000 0.100000 0
0.520000 0.100000 0
0.540000 0.100000 0
0.560000 0.100000 0
0.580000 0.100000 0
0.600000 0.100000 0
0.620000 0.100000 0
0.640000 0.100000 0
0.660000 0.100000 0
0.680000 0.100000 0
0.700000 0.100000 0
0.720000 0.100000 0
0.740000 0.100000 0
0.760000 0.100000 0
0.780000 0.100000 0
0.800000 0.100000 0
0.820000 0.100000 0
0.840000 0.100000 0
0.860000 0.100000 0
0.880000 0.100000 0
0.900000 0.100000 0
0.920000 0.100000 0
0.940000 0.100000 0
0.960000 0.100000 0
0.980000 0.100000 0
1.000000 0.100000 0
0.000000 0.120000 0
0.020000 0.120000 0
0.040000 0.120000 0
0.060000 0.120000 0
0.080000 0.120000 0
0.100000 0.120000 0
0.120000 0.120000 0
0.140000 0.120000 0
0.160000 0.120000 0
0.180000 0.120000 0
0.200000 0.120000 0
0.220000 0.120000 0
0.240000 0.120000 0
0.260000 0.120000 0
0.280000 0.120000 0
0.300000 0.120000 0
0.320000 0.120000 0
0.340000 0.120000 0
0.360000 0.120000 0
0.380000 0.120000 0
0.400000 0.120000 0
0.420000 0.120000 0
0.440000 0.120000 0
0.460000 0.120000 0
0.480000 0.120000 0
0.500000 0.120000 0
0.520000 0.120000 0
0.540000 0.120000 0
0.560000 0.120000 0
0.580000 0.120000 0
0.600000 0.120000 0
0.620000 0.120000 0
0.640000 0.120000 0
0.660000 0.120000 0
0.680000 0.120000 0
0.700000 0.120000 0
0.720000 0.120000 0
0.740000 0.120000 0
0.760000 0.120000 0
0.780000 0.120000 0
0.800000 0.120000 0
0.820000 0.120000 0
0.840000 0.120000 0
0.860000 0.120000 0
0.880000 0.120000 0
0.900000 0.120000 0
0.920000 0.120000 0
0.940000 0.120000 0
0.960000 0.120000 0
0.980000 0.120000 0
1.000000 0.120000 0
0.000000 0.140000 0
0.020000 0.140000 0
0.040000 0.140000 0
0.060000 0.140000 0
0.080000 0.140000 0
0.100000 0.140000 0
0.120000 0.140000 0
0.140000 0.140000 0
0.160000 0.140000 0
0.180000 0.140000 0
0.200000 0.140000 0
0.220000 0.140000 0
0.240000 0.140000 0
0.260000 0.140000 0
0.280000 0.140000 0
0.300000 0.140000 0
0.320000 0.140000 0
0.340000 0.140000 0
0.360000 0.140000 0
0.380000 0.140000 0
0.400000 0.140000 0
0.420000 0.140000 0
0.440000 0.140000 0
0.460000 0.140000 0
0.480000 0.140000 0
0.500000 0.140000 0
0.520000 0.140000 0
0.540000 0.140000 0
0.560000 0.140000 0
0.580000 0.140000 0
0.600000 0.140000 0
0.620000 0.140000 0
0.640000 0.140000 0
0.660000 0.140000 0
0.680000 0.140000 0
0.700000 0.140000 0
0.720000 0.140000 0
0.740000 0.140000 0
0.760000 0.140000 0
0.780000 0.140000 0
0.800000 0.140000 0
0.820000 0.140000 0
0.840000 0.140000 0
0.860000 0.140000 0
0.880000 0.140000 0
0.900000 0.140000 0
0.920000 0.140000 0
0.940000 0.140000 0
0.960000 0.140000 0
0.980000 0.140000 0
1.000000 0.140000 0
0.000000 0.160000 0
0.020000 0.160000 0
0.040000 0.160000 0
0.060000 0.160000 0
0.080000 0.160000 0
0.100000 0.160000 0
0.120000 0.160000 0
0.140000 0.160000 0
0.160000 0.160000 0
0.180000 0.160000 0
0.200000 0.160000 0
0.220000 0.160000 0
0.240000 0.160000 0
0.260000 0.160000 0
0.280000 0.160000 0
0.300000 0.160000 0
0.320000 0.160000 0
0.340000 0.160000 0
0.360000 0.160000 0
0.380000 0.160000 0
0.400000 0.160000 0
0.420000 0.160000 0
0.440000 0.160000 0
0.460000 0.160000 0
0.480000 0.160000 0
0.500000 0.160000 0
0.520000 0.160000 0
0.540000 0.160000 0
0.560000 0.160000 0
0.580000 0.160000 0
0.600000 0.160000 0
0.620000 0.160000 0
0.640000 0.160000 0
0.660000 0.160000 0
0.680000 0.160000 0
0.700000 0.160000 0
0.720000 0.160000 0
0.740000 0.160000 0
0.760000 0.160000 0
0.780000 0.160000 0
0.800000 0.160000 0
0.820000 0.160000 0
0.840000 0.160000 0
0.860000 0.160000 0
0.880000 0.160000 0
0.900000 0.160000 0
0.920000 0.160000 0
0.940000 0.160000 0
0.960000 0.160000 0
0.980000 0.160000 0
1.000000 0.160000 0
0.000000 0.180000 0
0.020000 0.180000 0
0.040000 0.180000 0
0.060000 0.180000 0
0.080000 0.180000 0
0.100000 0.180000 0
0.120000 0.180000 0
0.140000 0.180000 0
0.160000 0.180000 0
0.180000 0.180000 0
0.200000 0.180000 0
0.220000 0.180000 0
0.240000 0.180000 0
0.260000 0.180000 0
0.280000 0.180000 0
0.300000 0.180000 0
0.320000 0.180000 0
0.340000 0.180000 0
0.360000 0.180000 0
0.380000 0.180000 0
0.400000 0.180000 0
0.420000 0.180000 0
0.440000 0.180000 0
0.460000 0.180000 0
0.480000 0.180000 0
0.500000 0.180000 0
0.520000 0.180000 0
0.540000 0.180000 0
0.560000 0.180000 0
0.580000 0.180000 0
0.600000 0.180000 0
0.620000 0.180000 0
[...]
POINT_DATA 2601 

VECTORS velocity float
0.000000 0.000000 0
0.000000 0.000000 0
0.000000 0.000000 0
0.000000 0.000000 0
-0.000000 0.000000 0
-0.000000 0.000000 0
-0.000000 0.000000 0
-0.000000 0.000000 0
0.000000 0.000000 0
0.000000 0.000000 0
0.000000 0.000000 0
0.000000 0.000000 0
-0.000000 0.000000 0
-0.000000 0.000000 0
-0.000000 0.000000 0
-0.000000 0.000000 0
-0.000000 0.000000 0
-0.000000 0.000000 0
-0.000000 0.000000 0
-0.000000 0.000000 0
-0.000000 0.000000 0
-0.000000 0.000000 0
-0.000000 0.000000 0
-0.000000 0.000000 0
-0.000000 0.000000 0
-0.000000 0.000000 0
-0.000000 0.000000 0
-0.000000 0.000000 0
-0.000000 0.000000 0
-0.000000 0.000000 0
-0.000000 0.000000 0
-0.000000 0.000000 0
-0.000000 0.000000 0
-0.000000 0.000000 0
-0.000000 0.000000 0
-0.000000 0.000000 0
0.000000 0.000000 0
0.000000 0.000000 0
0.000000 0.000000 0
0.000000 0.000000 0
0.000000 0.000000 0
0.000000 0.000000 0
0.000000 0.000000 0
0.000000 0.000000 0
0.000000 0.000000 0
0.000000 0.000000 0
0.000000 0.000000 0
0.000000 0.000000 0
0.000000 0.000000 0
-0.000000 0.000000 0
0.000000 0.000000 0
0.000000 0.000000 0
0.000060 -0.000059 0
0.000081 -0.000022 0
-0.000015 0.000055 0
-0.000256 0.000143 0
-0.000645 0.000226 0
-0.001168 0.000300 0
-0.001809 0.000361 0
-0.002547 0.000410 0
-0.003362 0.000447 0
-0.004235 0.000474 0
-0.005148 0.000491 0
-0.006084 0.000500 0
-0.007030 0.000501 0
-0.007971 0.000496 0
-0.008893 0.000484 0
-0.009785 0.000465 0
-0.010635 0.000440 0
-0.011428 0.000408 0
-0.012154 0.000370 0
-0.012800 0.000325 0
-0.013353 0.000273 0
-0.013802 0.000215 0
-0.014137 0.000151 0
-0.014346 0.000082 0
-0.014423 0.000009 0
-0.014360 -0.000067 0
-0.014154 -0.000146 0
-0.013805 -0.000223 0
-0.013314 -0.000299 0
-0.012688 -0.000371 0
-0.011936 -0.000437 0
-0.011072 -0.000494 0
-0.010112 -0.000541 0
-0.009077 -0.000576 0
-0.007990 -0.000597 0
-0.006876 -0.000604 0
-0.005763 -0.000596 0
-0.004677 -0.000572 0
-0.003645 -0.000533 0
-0.002694 -0.000480 0
-0.001847 -0.000414 0
-0.001125 -0.000338 0
-0.000542 -0.000255 0
-0.000110 -0.000167 0
0.000169 -0.000080 0
0.000301 0.000001 0
0.000303 0.000066 0
0.000211 0.000099 0
0.000082 0.000081 0
0.000000 -0.000000 0
0.000000 0.000000 0
0.000024 -0.000080 0
-0.000076 0.000075 0
-0.000386 0.000336 0
-0.000942 0.000628 0
-0.001748 0.000911 0
-0.002786 0.001165 0
-0.004029 0.001380 0
-0.005443 0.001554 0
-0.006995 0.001688 0
-0.008651 0.001785 0
-0.010378 0.001849 0
-0.012148 0.001882 0
-0.013933 0.001886 0
-0.015706 0.001863 0
-0.017443 0.001815 0
-0.019119 0.001741 0
-0.020711 0.001643 0
-0.022195 0.001520 0
-0.023547 0.001372 0
-0.024746 0.001199 0
-0.025769 0.001003 0
-0.026594 0.000784 0
-0.027202 0.000544 0
-0.027576 0.000286 0
-0.027703 0.000014 0
-0.027571 -0.000269 0
-0.027175 -0.000555 0
-0.026514 -0.000840 0
-0.025595 -0.001117 0
-0.024428 -0.001378 0
-0.023031 -0.001616 0
-0.021430 -0.001824 0
-0.019654 -0.001994 0
-0.017741 -0.002122 0
-0.015732 -0.002201 0
-0.013671 -0.002227 0
-0.011607 -0.002200 0
-0.009588 -0.002118 0
-0.007663 -0.001982 0
-0.005877 -0.001798 0
-0.004271 -0.001569 0
-0.002883 -0.001305 0
-0.001738 -0.001015 0
-0.000854 -0.000711 0
-0.000235 -0.000411 0
0.000127 -0.000134 0
0.000265 0.000089 0
0.000229 0.000222 0
0.000102 0.000211 0
0.000000 -0.000000 0
0.000000 0.000000 0
-0.000057 0.000016 0
-0.000350 0.000386 0
-0.000946 0.000921 0
-0.001872 0.001505 0
-0.003125 0.002071 0
-0.004683 0.002582 0
-0.006510 0.003019 0
-0.008563 0.003376 0
-0.010798 0.003654 0
-0.013171 0.003856 0
-0.015641 0.003988 0
-0.018165 0.004054 0
-0.020705 0.004059 0
-0.023225 0.004006 0
-0.025689 0.003897 0
-0.028063 0.003733 0
-0.030312 0.003515 0
-0.032405 0.003245 0
-0.034307 0.002921 0
-0.035988 0.002546 0
-0.037417 0.002121 0
-0.038565 0.001649 0
-0.039405 0.001134 0
-0.039916 0.000583 0
-0.040078 0.000003 0
-0.039879 -0.000596 0
-0.039312 -0.001202 0
-0.038378 -0.001804 0
-0.037084 -0.002386 0
-0.035447 -0.002935 0
-0.033493 -0.003434 0
-0.031255 -0.003871 0
-0.028775 -0.004230 0
-0.026103 -0.004499 0
-0.023294 -0.004668 0
-0.020409 -0.004729 0
-0.017512 -0.004679 0
-0.014670 -0.004516 0
-0.011947 -0.004244 0
-0.009404 -0.003871 0
-0.007097 -0.003408 0
-0.005074 -0.002872 0
-0.003373 -0.002284 0
-0.002017 -0.001669 0
-0.001012 -0.001061 0
-0.000348 -0.000499 0
0.000009 -0.000036 0
0.000121 0.000262 0
0.000076 0.000311 0
0.000000 -0.000000 0
0.000000 -0.000000 0
-0.000154 0.000268 0
-0.000674 0.000963 0
-0.001597 0.001859 0
-0.002928 0.002809 0
-0.004652 0.003724 0
-0.006736 0.004549 0
-0.009137 0.005259 0
-0.011805 0.005842 0
-0.014688 0.006297 0
-0.017733 0.006628 0
-0.020889 0.006842 0
-0.024107 0.006946 0
-0.027338 0.006946 0
-0.030538 0.006847 0
-0.033661 0.006653 0
-0.036664 0.006365 0
-0.039506 0.005985 0
-0.042145 0.005515 0
-0.044539 0.004955 0
-0.046651 0.004309 0
-0.048441 0.003579 0
-0.049876 0.002772 0
-0.050923 0.001895 0
-0.051555 0.000959 0
-0.051751 -0.000023 0
-0.051495 -0.001035 0
-0.050781 -0.002057 0
-0.049609 -0.003069 0
-0.047990 -0.004047 0
-0.045945 -0.004969 0
-0.043504 -0.005808 0
-0.040709 -0.006542 0
-0.037611 -0.007147 0
-0.034269 -0.007603 0
-0.030751 -0.007895 0
-0.027130 -0.008009 0
-0.023484 -0.007939 0
-0.019892 -0.007684 0
-0.016433 -0.007249 0
-0.013181 -0.006648 0
-0.010206 -0.005899 0
-0.007565 -0.005029 0
-0.005304 -0.004072 0
-0.003454 -0.003072 0
-0.002026 -0.002079 0
-0.001011 -0.001156 0
-0.000376 -0.000380 0
-0.000060 0.000155 0
0.000025 0.000332 0
0.000000 0.000000 0
0.000000 -0.000000 0
-0.000253 0.000690 0
-0.001016 0.001830 0
-0.002284 0.003176 0
-0.004039 0.004561 0
-0.006246 0.005880 0
-0.008861 0.007067 0
-0.011831 0.008087 0
-0.015097 0.008926 0
-0.018602 0.009582 0
-0.022284 0.010058 0
-0.026086 0.010362 0
-0.029950 0.010503 0
-0.033822 0.010490 0
-0.037649 0.010328 0
-0.041379 0.010023 0
-0.044961 0.009578 0
-0.048346 0.008996 0
-0.051484 0.008278 0
-0.054330 0.007427 0
-0.056836 0.006448 0
-0.058960 0.005346 0
-0.060661 0.004130 0
-0.061903 0.002813 0
-0.062655 0.001411 0
-0.062892 -0.000057 0
-0.062598 -0.001565 0
-0.061764 -0.003088 0
-0.060392 -0.004594 0
-0.058494 -0.006050 0
-0.056094 -0.007420 0
-0.053227 -0.008670 0
-0.049940 -0.009764 0
-0.046290 -0.010670 0
-0.042345 -0.011359 0
-0.038183 -0.011807 0
-0.033887 -0.011996 0
-0.029546 -0.011917 0
-0.025251 -0.011567 0
-0.021093 -0.010955 0
-0.017158 -0.010098 0
-0.013527 -0.009025 0
-0.010268 -0.007774 0
-0.007436 -0.006395 0
-0.005070 -0.004947 0
-0.003188 -0.003503 0
-0.001786 -0.002149 0
-0.000834 -0.000987 0
-0.000278 -0.000139 0
-0.000036 0.000250 0
0.000000 0.000000 0
0.000000 -0.000000 0
-0.000351 0.001284 0
-0.001358 0.002995 0
-0.002977 0.004882 0
-0.005161 0.006771 0
-0.007855 0.008545 0
-0.011000 0.010133 0
-0.014531 0.011494 0
-0.018382 0.012612 0
-0.022487 0.013483 0
-0.026780 0.014112 0
-0.031195 0.014509 0
-0.035671 0.014683 0
-0.040146 0.014646 0
-0.044561 0.014404 0
-0.048858 0.013964 0
-0.052980 0.013331 0
-0.056872 0.012508 0
-0.060479 0.011499 0
-0.063748 0.010307 0
-0.066629 0.008939 0
-0.069071 0.007404 0
-0.071032 0.005714 0
-0.072469 0.003888 0
-0.073350 0.001948 0
-0.073646 -0.000080 0
-0.073338 -0.002163 0
-0.072417 -0.004263 0
-0.070884 -0.006338 0
-0.068753 -0.008345 0
-0.066047 -0.010236 0
-0.062806 -0.011963 0
-0.059079 -0.013479 0
-0.054930 -0.014742 0
-0.050433 -0.015710 0
-0.045673 -0.016353 0
-0.040742 -0.016646 0
-0.035739 -0.016575 0
-0.030766 -0.016136 0
-0.025925 -0.015342 0
-0.021314 -0.014213 0
-0.017025 -0.012789 0
-0.013137 -0.011119 0
-0.009716 -0.009270 0
-0.006811 -0.007320 0
-0.004446 -0.005363 0
-0.002628 -0.003510 0
-0.001332 -0.001888 0
-0.000514 -0.000643 0
-0.000101 0.000054 0
0.000000 0.000000 0
0.000000 -0.000000 0
-0.000445 0.002048 0
-0.001692 0.004457 0
-0.003658 0.006979 0
-0.006269 0.009439 0
-0.009446 0.011718 0
-0.013114 0.013742 0
-0.017197 0.015469 0
-0.021619 0.016883 0
-0.026306 0.017979 0
-0.031187 0.018765 0
-0.036190 0.019253 0
-0.041248 0.019454 0
-0.046296 0.019380 0
-0.051269 0.019040 0
-0.056104 0.018443 0
-0.060739 0.017593 0
-0.065114 0.016495 0
-0.069170 0.015154 0
-0.072848 0.013577 0
-0.076094 0.011771 0
-0.078853 0.009749 0
-0.081077 0.007528 0
-0.082722 0.005131 0
-0.083750 0.002587 0
-0.084130 -0.000068 0
-0.083841 -0.002794 0
-0.082871 -0.005542 0
-0.081220 -0.008258 0
-0.078900 -0.010887 0
-0.075937 -0.013367 0
-0.072368 -0.015638 0
-0.068248 -0.017640 0
-0.063643 -0.019316 0
-0.058631 -0.020617 0
-0.053305 -0.021499 0
-0.047764 -0.021930 0
-0.042116 -0.021893 0
-0.036474 -0.021381 0
-0.030951 -0.020407 0
-0.025656 -0.018998 0
-0.020694 -0.017202 0
-0.016156 -0.015083 0
-0.012121 -0.012721 0
-0.008648 -0.010217 0
-0.005774 -0.007686 0
-0.003512 -0.005263 0
-0.001853 -0.003101 0
-0.000757 -0.001370 0
-0.000166 -0.000264 0
0.000000 0.000000 0
0.000000 0.000000 0
-0.000535 0.002976 0
-0.002013 0.006208 0
-0.004318 0.009459 0
-0.007346 0.012558 0
-0.010996 0.015390 0
-0.015177 0.017884 0
-0.019799 0.019999 0
-0.024776 0.021721 0
-0.030028 0.023051 0
-0.035476 0.023996 0
-0.041045 0.024570 0
-0.046663 0.024789 0
-0.052260 0.024666 0
-0.057767 0.024212 0
-0.063118 0.023435 0
-0.068248 0.022342 0
-0.073092 0.020939 0
-0.077586 0.019233 0
-0.081668 0.017230 0
-0.085280 0.014943 0
-0.088363 0.012387 0
-0.090866 0.009584 0
-0.092739 0.006562 0
-0.093942 0.003356 0
-0.094440 0.000011 0
-0.094209 -0.003422 0
-0.093233 -0.006884 0
-0.091509 -0.010310 0
-0.089049 -0.013629 0
-0.085874 -0.016768 0
-0.082024 -0.019651 0
-0.077553 -0.022205 0
-0.072528 -0.024358 0
-0.067033 -0.026048 0
-0.061164 -0.027221 0
-0.055027 -0.027835 0
-0.048740 -0.027864 0
-0.042425 -0.027302 0
-0.036207 -0.026160 0
-0.030209 -0.024470 0
-0.024548 -0.022289 0
-0.019332 -0.019692 0
-0.014650 -0.016778 0
-0.010577 -0.013667 0
-0.007163 -0.010499 0
-0.004433 -0.007431 0
-0.002389 -0.004643 0
-0.001005 -0.002329 0
-0.000231 -0.000704 0
0.000000 0.000000 0
0.000000 0.000000 0
-0.000621 0.004062 0
-0.002320 0.008240 0
-0.004951 0.012311 0
-0.008382 0.016117 0
-0.012491 0.019549 0
-0.017170 0.022544 0
-0.022314 0.025069 0
-0.027829 0.027112 0
-0.033627 0.028679 0
-0.039623 0.029782 0
-0.045737 0.030440 0
-0.051894 0.030669 0
-0.058020 0.030484 0
-0.064044 0.029899 0
-0.069897 0.028924 0
-0.075509 0.027566 0
-0.080813 0.025832 0
-0.085742 0.023731 0
-0.090232 0.021270 0
-0.094219 0.018465 0
-0.097642 0.015335 0
-0.100445 0.011904 0
-0.102576 0.008208 0
-0.103989 0.004289 0
-0.104646 0.000198 0
-0.104517 -0.004002 0
-0.103584 -0.008241 0
-0.101838 -0.012443 0
-0.099288 -0.016522 0
-0.095952 -0.020391 0
-0.091867 -0.023959 0
-0.087086 -0.027136 0
-0.081677 -0.029836 0
-0.075725 -0.031981 0
-0.069330 -0.033505 0
-0.062606 -0.034354 0
-0.055677 -0.034494 0
-0.048678 -0.033914 0
-0.041744 -0.032623 0
-0.035015 -0.030657 0
-0.028621 -0.028080 0
-0.022687 -0.024981 0
-0.017319 -0.021476 0
-0.012608 -0.017704 0
-0.008620 -0.013830 0
-0.005394 -0.010037 0
-0.002944 -0.006529 0
-0.001258 -0.003528 0
-0.000296 -0.001269 0
0.000000 0.000000 0
0.000000 0.000000 0
-0.000702 0.005296 0
-0.002611 0.010538 0
-0.005553 0.015520 0
-0.009370 0.020098 0
-0.013920 0.024178 0
-0.019077 0.027706 0
-0.024724 0.030659 0
-0.030758 0.033034 0
-0.037080 0.034844 0
-0.043604 0.036106 0
-0.050243 0.036842 0
-0.056921 0.037073 0
-0.063559 0.036817 0
-0.070085 0.036088 0
-0.076427 0.034899 0
-0.082514 0.033258 0
-0.088275 0.031172 0
-0.093642 0.028651 0
-0.098547 0.025706 0
-0.102924 0.022353 0
-0.106709 0.018614 0
-0.109841 0.014518 0
-0.112265 0.010106 0
-0.113929 0.005426 0
-0.114792 0.000539 0
-0.114817 -0.004484 0
-0.113980 -0.009562 0
-0.112269 -0.014606 0
-0.109683 -0.019516 0
-0.106240 -0.024188 0
-0.101970 -0.028517 0
-0.096922 -0.032395 0
-0.091165 -0.035719 0
-0.084783 -0.038395 0
-0.077879 -0.040340 0
-0.070572 -0.041487 0
-0.062996 -0.041793 0
-0.055295 -0.041235 0
-0.047619 -0.039823 0
-0.040123 -0.037594 0
-0.032955 -0.034617 0
-0.026257 -0.030994 0
-0.020158 -0.026856 0
-0.014764 -0.022367 0
-0.010161 -0.017713 0
-0.006405 -0.013107 0
-0.003525 -0.008779 0
-0.001520 -0.004977 0
-0.000362 -0.001962 0
0.000000 0.000000 0
0.000000 0.000000 0
-0.000778 0.006673 0
-0.002886 0.013091 0
-0.006122 0.019070 0
-0.010305 0.024484 0
-0.015274 0.029256 0
-0.020887 0.033348 0
-0.027014 0.036749 0
-0.033542 0.039468 0
-0.040368 0.041525 0
-0.047397 0.042945 0
-0.054542 0.043757 0
-0.061720 0.043984 0
-0.068854 0.043649 0
-0.075868 0.042767 0
-0.082690 0.041352 0
-0.089245 0.039414 0
-0.095464 0.036961 0
-0.101274 0.034003 0
-0.106607 0.030552 0
-0.111393 0.026627 0
-0.115565 0.022252 0
-0.119059 0.017460 0
-0.121815 0.012296 0
-0.123777 0.006815 0
-0.124897 0.001086 0
-0.125132 -0.004813 0
-0.124452 -0.010789 0
-0.122835 -0.016739 0
-0.120277 -0.022551 0
-0.116784 -0.028105 0
-0.112383 -0.033277 0
-0.107118 -0.037941 0
-0.101052 -0.041976 0
-0.094270 -0.045267 0
-0.086876 -0.047715 0
-0.078993 -0.049236 0
-0.070763 -0.049772 0
-0.062341 -0.049291 0
-0.053893 -0.047795 0
-0.045589 -0.045322 0
-0.037600 -0.041945 0
-0.030088 -0.037778 0
-0.023202 -0.032969 0
-0.017074 -0.027701 0
-0.011809 -0.022189 0
-0.007482 -0.016673 0
-0.004140 -0.011414 0
-0.001796 -0.006690 0
-0.000431 -0.002789 0
0.000000 0.000000 0
0.000000 0.000000 0
-0.000849 0.008182 0
-0.003143 0.015883 0
-0.006654 0.022940 0
-0.011182 0.029251 0
-0.016545 0.034760 0
-0.022587 0.039446 0
-0.029168 0.043315 0
-0.036166 0.046389 0
-0.043469 0.048699 0
-0.050980 0.050279 0
-0.058607 0.051165 0
-0.066266 0.051385 0
-0.073878 0.050965 0
-0.081367 0.049924 0
-0.088657 0.048276 0
-0.095677 0.046032 0
-0.102353 0.043201 0
-0.108614 0.039795 0
-0.114387 0.035825 0
-0.119602 0.031311 0
-0.124190 0.026280 0
-0.128081 0.020768 0
-0.131212 0.014824 0
-0.133522 0.008508 0
-0.134953 0.001894 0
-0.135459 -0.004929 0
-0.134999 -0.011859 0
-0.133544 -0.018780 0
-0.131079 -0.025567 0
-0.127603 -0.032082 0
-0.123133 -0.038183 0
-0.117705 -0.043726 0
-0.111377 -0.048567 0
-0.104231 -0.052572 0
-0.096371 -0.055617 0
-0.087923 -0.057600 0
-0.079036 -0.058444 0
-0.069876 -0.058105 0
-0.060625 -0.056575 0
-0.051472 -0.053887 0
-0.042610 -0.050118 0
-0.034226 -0.045391 0
-0.026495 -0.039870 0
-0.019573 -0.033760 0
-0.013590 -0.027305 0
-0.008646 -0.020775 0
-0.004804 -0.014465 0
-0.002093 -0.008686 0
-0.000505 -0.003758 0
0.000000 0.000000 0
0.000000 -0.000000 0
-0.000914 0.009815 0
-0.003380 0.018897 0
-0.007147 0.027109 0
-0.011994 0.034375 0
-0.017724 0.040662 0
-0.024167 0.045971 0
-0.031173 0.050328 0
-0.038610 0.053769 0
-0.046362 0.056339 0
-0.054328 0.058083 0
-0.062412 0.059043 0
-0.070530 0.059256 0
-0.078601 0.058749 0
-0.086547 0.057546 0
-0.094296 0.055662 0
-0.101773 0.053109 0
-0.108906 0.049898 0
-0.115622 0.046037 0
-0.121849 0.041541 0
-0.127513 0.036430 0
-0.132543 0.030731 0
-0.136867 0.024483 0
-0.140416 0.017736 0
-0.143122 0.010556 0
-0.144924 0.003023 0
-0.145763 -0.004767 0
-0.145592 -0.012704 0
-0.144370 -0.020659 0
-0.142072 -0.028493 0
-0.138684 -0.036052 0
-0.134214 -0.043175 0
-0.128687 -0.049696 0
-0.122155 -0.055449 0
-0.114691 -0.060274 0
-0.106398 -0.064023 0
-0.097404 -0.066571 0
-0.087863 -0.067819 0
-0.077953 -0.067702 0
-0.067871 -0.066199 0
-0.057828 -0.063337 0
-0.048040 -0.059192 0
-0.038722 -0.053893 0
-0.030079 -0.047622 0
-0.022297 -0.040606 0
-0.015535 -0.033116 0
-0.009916 -0.025459 0
-0.005528 -0.017967 0
-0.002416 -0.010989 0
-0.000586 -0.004881 0
0.000000 0.000000 0
0.000000 -0.000000 0
-0.000974 0.011562 0
-0.003596 0.022115 0
-0.007597 0.031554 0
-0.012736 0.039828 0
-0.018803 0.046933 0
-0.025615 0.052894 0
-0.033012 0.057757 0
-0.040856 0.061578 0
-0.049026 0.064416 0
-0.057416 0.066329 0
-0.065929 0.067367 0
-0.074479 0.067574 0
-0.082985 0.066982 0
-0.091371 0.065619 0
-0.099563 0.063501 0
-0.107488 0.060642 0
-0.115073 0.057051 0
-0.122247 0.052738 0
-0.128936 0.047716 0
-0.135066 0.042006 0
-0.140563 0.035634 0
-0.145353 0.028641 0
-0.149360 0.021079 0
-0.152513 0.013015 0
-0.154741 0.004535 0
-0.155979 -0.004261 0
-0.156166 -0.013252 0
-0.155253 -0.022301 0
-0.153199 -0.031253 0
-0.149980 -0.039940 0
-0.145588 -0.048180 0
-0.140037 -0.055785 0
-0.133367 -0.062564 0
-0.125644 -0.068328 0
-0.116964 -0.072904 0
-0.107455 -0.076135 0
-0.097274 -0.077895 0
-0.086611 -0.078097 0
-0.075678 -0.076700 0
-0.064706 -0.073719 0
-0.053940 -0.069224 0
-0.043626 -0.063351 0
-0.034002 -0.056294 0
-0.025286 -0.048305 0
-0.017673 -0.039687 0
-0.011315 -0.030782 0
-0.006327 -0.021964 0
-0.002774 -0.013628 0
-0.000675 -0.006174 0
0.000000 -0.000000 0
0.000000 -0.000000 0
-0.001028 0.013411 0
-0.003790 0.025519 0
-0.008000 0.036248 0
-0.013402 0.045581 0
-0.019773 0.053541 0
-0.026918 0.060181 0
-0.034671 0.065569 0
-0.042886 0.069783 0
-0.051438 0.072898 0
-0.060217 0.074986 0
-0.069126 0.076107 0
-0.078078 0.076312 0
-0.086993 0.075642 0
-0.095794 0.074124 0
-0.104409 0.071779 0
-0.112766 0.068620 0
-0.120795 0.064657 0
-0.128423 0.059900 0
-0.135578 0.054360 0
-0.142185 0.048057 0
-0.148168 0.041017 0
-0.153450 0.033279 0
-0.157953 0.024896 0
-0.161597 0.015937 0
-0.164307 0.006489 0
-0.166005 -0.003342 0
-0.166623 -0.013429 0
-0.166095 -0.023626 0
-0.164370 -0.033766 0
-0.161405 -0.043663 0
-0.157179 -0.053117 0
-0.151691 -0.061916 0
-0.144964 -0.069842 0
-0.137054 -0.076677 0
-0.128048 -0.082213 0
-0.118070 -0.086261 0
-0.107279 -0.088662 0
-0.095872 -0.089298 0
-0.084077 -0.088104 0
-0.072147 -0.085074 0
-0.060356 -0.080272 0
-0.048983 -0.073832 0
-0.038304 -0.065961 0
-0.028578 -0.056935 0
-0.020035 -0.047088 0
-0.012866 -0.036805 0
-0.007216 -0.026508 0
-0.003174 -0.016641 0
-0.000775 -0.007656 0
0.000000 -0.000000 0
0.000000 0.000000 0
-0.001074 0.015352 0
-0.003959 0.029088 0
-0.008353 0.041165 0
-0.013986 0.051601 0
-0.020625 0.060449 0
-0.028066 0.067793 0
-0.036134 0.073725 0
-0.044680 0.078345 0
-0.053573 0.081747 0
-0.062703 0.084017 0
-0.071971 0.085228 0
-0.081290 0.085440 0
-0.090580 0.084698 0
-0.099766 0.083035 0
-0.108778 0.080474 0
-0.117546 0.077028 0
-0.126001 0.072707 0
-0.134072 0.067520 0
-0.141688 0.061478 0
-0.148775 0.054596 0
-0.155255 0.046900 0
-0.161050 0.038426 0
-0.166077 0.029226 0
-0.170252 0.019369 0
-0.173491 0.008943 0
-0.175710 -0.001945 0
-0.176826 -0.013162 0
-0.176763 -0.024554 0
-0.175451 -0.035943 0
-0.172834 -0.047130 0
-0.168871 -0.057894 0
-0.163542 -0.068000 0
-0.156854 -0.077200 0
-0.148847 -0.085245 0
-0.139594 -0.091888 0
-0.129213 -0.096903 0
-0.117859 -0.100092 0
-0.105736 -0.101299 0
-0.093083 -0.100425 0
-0.080178 -0.097440 0
-0.067321 -0.092389 0
-0.054831 -0.085403 0
-0.043025 -0.076699 0
-0.032206 -0.066574 0
-0.022651 -0.055398 0
-0.014592 -0.043601 0
-0.008208 -0.031657 0
-0.003622 -0.020069 0
-0.000888 -0.009348 0
0.000000 -0.000000 0
0.000000 0.000000 0
-0.001114 0.017371 0
-0.004103 0.032798 0
-0.008652 0.046275 0
-0.014482 0.057853 0
-0.021351 0.067620 0
-0.029045 0.075690 0
-0.037386 0.082183 0
-0.046219 0.087223 0
-0.055410 0.090922 0
-0.064847 0.093383 0
-0.074431 0.094693 0
-0.084074 0.094920 0
-0.093700 0.094117 0
-0.103234 0.092322 0
-0.112609 0.089559 0
-0.121757 0.085843 0
-0.130612 0.081183 0
-0.139106 0.075587 0
-0.147169 0.069063 0
-0.154728 0.061624 0
-0.161706 0.053292 0
-0.168022 0.044101 0
-0.173592 0.034099 0
-0.178327 0.023352 0
-0.182137 0.011947 0
-0.184928 -0.000007 0
-0.186607 -0.012376 0
-0.187083 -0.025001 0
-0.186272 -0.037694 0
-0.184098 -0.050243 0
-0.180501 -0.062409 0
-0.175440 -0.073933 0
-0.168902 -0.084537 0
-0.160904 -0.093937 0
-0.151505 -0.101847 0
-0.140808 -0.107996 0
-0.128963 -0.112138 0
-0.116172 -0.114075 0
-0.102687 -0.113663 0
-0.088804 -0.110837 0
-0.074856 -0.105619 0
-0.061199 -0.098128 0
-0.048197 -0.088586 0
-0.036205 -0.077308 0
-0.025549 -0.064702 0
-0.016512 -0.051248 0
-0.009319 -0.037478 0
-0.004126 -0.023961 0
-0.001016 -0.011277 0
0.000000 -0.000000 0
0.000000 0.000000 0
-0.001145 0.019454 0
-0.004218 0.036626 0
-0.008894 0.051545 0
-0.014886 0.064299 0
-0.021942 0.075012 0
-0.029847 0.083829 0
-0.038414 0.090898 0
-0.047485 0.096369 0
-0.056926 0.100376 0
-0.066621 0.103038 0
-0.076472 0.104456 0
-0.086392 0.104709 0
-0.096306 0.103858 0
-0.106143 0.101945 0
-0.115838 0.098997 0