# vtk DataFile Version 2.0
generated by CFD-lab course output (written by Tobias Neckel) 
ASCII

DATASET STRUCTURED_GRID
DIMENSIONS  51 51 1 
POINTS 2601 float

0.000000 0.000000 0
0.020000 0.000000 0
0.040000 0.000000 0
0.060000 0.000000 0
0.080000 0.000000 0
0.100000 0.000000 0
0.120000 0.000000 0
0.140000 0.000000 0
0.160000 0.000000 0
0.180000 0.000000 0
0.200000 0.000000 0
0.220000 0.000000 0
0.240000 0.000000 0
0.260000 0.000000 0
0.280000 0.000000 0
0.300000 0.000000 0
0.320000 0.000000 0
0.340000 0.000000 0
0.360000 0.000000 0
0.380000 0.000000 0
0.400000 0.000000 0
0.420000 0.000000 0
0.440000 0.000000 0
0.460000 0.000000 0
0.480000 0.000000 0
0.500000 0.000000 0
0.520000 0.000000 0
0.540000 0.000000 0
0.560000 0.000000 0
0.580000 0.000000 0
0.600000 0.000000 0
0.620000 0.000000 0
0.640000 0.000000 0
0.660000 0.000000 0
0.680000 0.000000 0
0.700000 0.000000 0
0.720000 0.000000 0
0.740000 0.000000 0
0.760000 0.000000 0
0.780000 0.000000 0
0.800000 0.000000 0
0.820000 0.000000 0
0.840000 0.000000 0
0.860000 0.000000 0
0.880000 0.000000 0
0.900000 0.000000 0
0.920000 0.000000 0
0.940000 0.000000 0
0.960000 0.000000 0
0.980000 0.000000 0
1.000000 0.000000 0
0.000000 0.020000 0
0.020000 0.020000 0
0.040000 0.020000 0
0.060000 0.020000 0
0.080000 0.020000 0
0.100000 0.020000 0
0.120000 0.020000 0
0.140000 0.020000 0
0.160000 0.020000 0
0.180000 0.020000 0
0.200000 0.020000 0
0.220000 0.020000 0
0.240000 0.020000 0
0.260000 0.020000 0
0.280000 0.020000 0
0.300000 0.020000 0
0.320000 0.020000 0
0.340000 0.020000 0
0.360000 0.020000 0
0.380000 0.020000 0
0.400000 0.020000 0
0.420000 0.020000 0
0.440000 0.020000 0
0.460000 0.020000 0
0.480000 0.020000 0
0.500000 0.020000 0
0.520000 0.020000 0
0.540000 0.020000 0
0.560000 0.020000 0
0.580000 0.020000 0
0.600000 0.020000 0
0.620000 0.020000 0
0.640000 0.020000 0
0.660000 0.020000 0
0.680000 0.020000 0
0.700000 0.020000 0
0.720000 0.020000 0
0.740000 0.020000 0
0.760000 0.020000 0
0.780000 0.020000 0
0.800000 0.020000 0
0.820000 0.020000 0
0.840000 0.020000 0
0.860000 0.020000 0
0.880000 0.020000 0
0.900000 0.020000 0
0.920000 0.020000 0
0.940000 0.020000 0
0.960000 0.020000 0
0.980000 0.020000 0
1.000000 0.020000 0
0.000000 0.040000 0
0.020000 0.040000 0
0.040000 0.040000 0
0.060000 0.040000 0
0.080000 0.040000 0
0.100000 0.040000 0
0.120000 0.040000 0
0.140000 0.040000 0
0.160000 0.040000 0
0.180000 0.040000 0
0.200000 0.040000 0
0.220000 0.040000 0
0.240000 0.040000 0
0.260000 0.040000 0
0.280000 0.040000 0
0.300000 0.040000 0
0.320000 0.040000 0
0.340000 0.040000 0
0.360000 0.040000 0
0.380000 0.040000 0
0.400000 0.040000 0
0.420000 0.040000 0
0.440000 0.040000 0
0.460000 0.040000 0
0.480000 0.040000 0
0.500000 0.040000 0
0.520000 0.040000 0
0.540000 0.040000 0
0.560000 0.040000 0
0.580000 0.040000 0
0.600000 0.040000 0
0.620000 0.040000 0
0.640000 0.040000 0
0.660000 0.040000 0
0.680000 0.040000 0
0.700000 0.040000 0
0.720000 0.040000 0
0.740000 0.040000 0
0.760000 0.040000 0
0.780000 0.040000 0
0.800000 0.040000 0
0.820000 0.040000 0
0.840000 0.040000 0
0.860000 0.040000 0
0.880000 0.040000 0
0.900000 0.040000 0
0.920000 0.040000 0
0.940000 0.040000 0
0.960000 0.040000 0
0.980000 0.040000 0
1.000000 0.040000 0
0.000000 0.060000 0
0.020000 0.060000 0
0.040000 0.060000 0
0.060000 0.060000 0
0.080000 0.060000 0
0.100000 0.060000 0
0.120000 0.060000 0
0.140000 0.060000 0
0.160000 0.060000 0
0.180000 0.060000 0
0.200000 0.060000 0
0.220000 0.060000 0
0.240000 0.060000 0
0.260000 0.060000 0
0.280000 0.060000 0
0.300000 0.060000 0
0.320000 0.060000 0
0.340000 0.060000 0
0.360000 0.060000 0
0.380000 0.060000 0
0.400000 0.060000 0
0.420000 0.060000 0
0.440000 0.060000 0
0.460000 0.060000 0
0.480000 0.060000 0
0.500000 0.060000 0
0.520000 0.060000 0
0.540000 0.060000 0
0.560000 0.060000 0
0.580000 0.060000 0
0.600000 0.060000 0
0.620000 0.060000 0
0.640000 0.060000 0
0.660000 0.060000 0
0.680000 0.060000 0
0.700000 0.060000 0
0.720000 0.060000 0
0.740000 0.060000 0
0.760000 0.060000 0
0.780000 0.060000 0
0.800000 0.060000 0
0.820000 0.060000 0
0.840000 0.060000 0
0.860000 0.060000 0
0.880000 0.060000 0
0.900000 0.060000 0
0.920000 0.060000 0
0.940000 0.060000 0
0.960000 0.060000 0
0.980000 0.060000 0
1.000000 0.060000 0
0.000000 0.080000 0
0.020000 0.080000 0
0.040000 0.080000 0
0.060000 0.080000 0
0.080000 0.080000 0
0.100000 0.080000 0
0.120000 0.080000 0
0.140000 0.080000 0
0.160000 0.080000 0
0.180000 0.080000 0
0.200000 0.080000 0
0.220000 0.080000 0
0.240000 0.080000 0
0.260000 0.080000 0
0.280000 0.080000 0
0.300000 0.080000 0
0.320000 0.080000 0
0.340000 0.080000 0
0.360000 0.080000 0
0.380000 0.080000 0
0.400000 0.080000 0
0.420000 0.080000 0
0.440000 0.080000 0
0.460000 0.080000 0
0.480000 0.080000 0
0.500000 0.080000 0
0.520000 0.080000 0
0.540000 0.080000 0
0.560000 0.080000 0
0.580000 0.080000 0
0.600000 0.080000 0
0.620000 0.080000 0
0.640000 0.080000 0
0.660000 0.080000 0
0.680000 0.080000 0
0.700000 0.080000 0
0.720000 0.080000 0
0.740000 0.080000 0
0.760000 0.080000 0
0.780000 0.080000 0
0.800000 0.080000 0
0.820000 0.080000 0
0.840000 0.080000 0
0.860000 0.080000 0
0.880000 0.080000 0
0.900000 0.080000 0
0.920000 0.080000 0
0.940000 0.080000 0
0.960000 0.080000 0
0.980000 0.080000 0
1.000000 0.080000 0
0.000000 0.100000 0
0.020000 0.100000 0
0.040000 0.100000 0
0.060000 0.100000 0
0.080000 0.100000 0
0.100000 0.100000 0
0.120000 0.100000 0
0.140000 0.100000 0
0.160000 0.100000 0
0.180000 0.100000 0
0.200000 0.100000 0
0.220000 0.100000 0
0.240000 0.100000 0
0.260000 0.100000 0
0.280000 0.100000 0
0.300000 0.100000 0
0.320000 0.100000 0
0.340000 0.100000 0
0.360000 0.100000 0
0.380000 0.100000 0
0.400000 0.100000 0
0.420000 0.100000 0
0.440000 0.100000 0
0.460000 0.100000 0
0.480000 0.100000 0
0.500000 0.100000 0
0.520000 0.100000 0
0.540000 0.100000 0
0.560000 0.100000 0
0.580000 0.100000 0
0.600000 0.100000 0
0.620000 0.100000 0
0.640000 0.100000 0
0.660000 0.100000 0
0.680000 0.100000 0
0.700000 0.100000 0
0.720000 0.100000 0
0.740000 0.100000 0
0.760000 0.100000 0
0.780000 0.100000 0
0.800000 0.100000 0
0.820000 0.100000 0
0.840000 0.100000 0
0.860000 0.100000 0
0.880000 0.100000 0
0.900000 0.100000 0
0.920000 0.100000 0
0.940000 0.100000 0
0.960000 0.100000 0
0.980000 0.100000 0
1.000000 0.100000 0
0.000000 0.120000 0
0.020000 0.120000 0
0.040000 0.120000 0
0.060000 0.120000 0
0.080000 0.120000 0
0.100000 0.120000 0
0.120000 0.120000 0
0.140000 0.120000 0
0.160000 0.120000 0
0.180000 0.120000 0
0.200000 0.120000 0
0.220000 0.120000 0
0.240000 0.120000 0
0.260000 0.120000 0
0.280000 0.120000 0
0.300000 0.120000 0
0.320000 0.120000 0
0.340000 0.120000 0
0.360000 0.120000 0
0.380000 0.120000 0
0.400000 0.120000 0
0.420000 0.120000 0
0.440000 0.120000 0
0.460000 0.120000 0
0.480000 0.120000 0
0.500000 0.120000 0
0.520000 0.120000 0
0.540000 0.120000 0
0.560000 0.120000 0
0.580000 0.120000 0
0.600000 0.120000 0
0.620000 0.120000 0
0.640000 0.120000 0
0.660000 0.120000 0
0.680000 0.120000 0
0.700000 0.120000 0
0.720000 0.120000 0
0.740000 0.120000 0
0.760000 0.120000 0
0.780000 0.120000 0
0.800000 0.120000 0
0.820000 0.120000 0
0.840000 0.120000 0
0.860000 0.120000 0
0.880000 0.120000 0
0.900000 0.120000 0
0.920000 0.120000 0
0.940000 0.120000 0
0.960000 0.120000 0
0.980000 0.120000 0
1.000000 0.120000 0
0.000000 0.140000 0
0.020000 0.140000 0
0.040000 0.140000 0
0.060000 0.140000 0
0.080000 0.140000 0
0.100000 0.140000 0
0.120000 0.140000 0
0.140000 0.140000 0
0.160000 0.140000 0
0.180000 0.140000 0
0.200000 0.140000 0
0.220000 0.140000 0
0.240000 0.140000 0
0.260000 0.140000 0
0.280000 0.140000 0
0.300000 0.140000 0
0.320000 0.140000 0
0.340000 0.140000 0
0.360000 0.140000 0
0.380000 0.140000 0
0.400000 0.140000 0
0.420000 0.140000 0
0.440000 0.140000 0
0.460000 0.140000 0
0.480000 0.140000 0
0.500000 0.140000 0
0.520000 0.140000 0
0.540000 0.140000 0
0.560000 0.140000 0
0.580000 0.140000 0
0.600000 0.140000 0
0.620000 0.140000 0
0.640000 0.140000 0
0.660000 0.140000 0
0.680000 0.140000 0
0.700000 0.140000 0
0.720000 0.140000 0
0.740000 0.140000 0
0.760000 0.140000 0
0.780000 0.140000 0
0.800000 0.140000 0
0.820000 0.140000 0
0.840000 0.140000 0
0.860000 0.140000 0
0.880000 0.140000 0
0.900000 0.140000 0
0.920000 0.140000 0
0.940000 0.140000 0
0.960000 0.140000 0
0.980000 0.140000 0
1.000000 0.140000 0
0.000000 0.160000 0
0.020000 0.160000 0
0.040000 0.160000 0
0.060000 0.160000 0
0.080000 0.160000 0
0.100000 0.160000 0
0.120000 0.160000 0
0.140000 0.160000 0
0.160000 0.160000 0
0.180000 0.160000 0
0.200000 0.160000 0
0.220000 0.160000 0
0.240000 0.160000 0
0.260000 0.160000 0
0.280000 0.160000 0
0.300000 0.160000 0
0.320000 0.160000 0
0.340000 0.160000 0
0.360000 0.160000 0
0.380000 0.160000 0
0.400000 0.160000 0
0.420000 0.160000 0
0.440000 0.160000 0
0.460000 0.160000 0
0.480000 0.160000 0
0.500000 0.160000 0
0.520000 0.160000 0
0.540000 0.160000 0
0.560000 0.160000 0
0.580000 0.160000 0
0.600000 0.160000 0
0.620000 0.160000 0
0.640000 0.160000 0
0.660000 0.160000 0
0.680000 0.160000 0
0.700000 0.160000 0
0.720000 0.160000 0
0.740000 0.160000 0
0.760000 0.160000 0
0.780000 0.160000 0
0.800000 0.160000 0
0.820000 0.160000 0
0.840000 0.160000 0
0.860000 0.160000 0
0.880000 0.160000 0
0.900000 0.160000 0
0.920000 0.160000 0
0.940000 0.160000 0
0.960000 0.160000 0
0.980000 0.160000 0
1.000000 0.160000 0
0.000000 0.180000 0
0.020000 0.180000 0
0.040000 0.180000 0
0.060000 0.180000 0
0.080000 0.180000 0
0.100000 0.180000 0
0.120000 0.180000 0
0.140000 0.180000 0
0.160000 0.180000 0
0.180000 0.180000 0
0.200000 0.180000 0
0.220000 0.180000 0
0.240000 0.180000 0
0.260000 0.180000 0
0.280000 0.180000 0
0.300000 0.180000 0
0.320000 0.180000 0
0.340000 0.180000 0
0.360000 0.180000 0
0.380000 0.180000 0
0.400000 0.180000 0
0.420000 0.180000 0
0.440000 0.180000 0
0.460000 0.180000 0
0.480000 0.180000 0
0.500000 0.180000 0
0.520000 0.180000 0
0.540000 0.180000 0
0.560000 0.180000 0
0.580000 0.180000 0
0.600000 0.180000 0
0.620000 0.180000 0
[...]
POINT_DATA 2601 

VECTORS velocity float
0.000000 0.000000 0
-0.000001 0.000000 0
-0.000000 0.000000 0
0.000000 0.000000 0
0.000001 0.000000 0
0.000001 0.000000 0
0.000000 0.000000 0
-0.000000 0.000000 0
-0.000000 0.000000 0
-0.000000 0.000000 0
-0.000000 0.000000 0
-0.000000 0.000000 0
0.000000 0.000000 0
0.000000 0.000000 0
0.000000 0.000000 0
0.000000 0.000000 0
0.000000 0.000000 0
-0.000000 0.000000 0
-0.000000 0.000000 0
-0.000000 0.000000 0
-0.000000 0.000000 0
-0.000000 0.000000 0
-0.000000 0.000000 0
-0.000000 0.000000 0
-0.000000 0.000000 0
-0.000000 0.000000 0
-0.000000 0.000000 0
-0.000000 0.000000 0
-0.000000 0.000000 0
-0.000000 0.000000 0
-0.000000 0.000000 0
-0.000000 0.000000 0
-0.000000 0.000000 0
-0.000000 0.000000 0
-0.000000 0.000000 0
-0.000000 0.000000 0
-0.000000 0.000000 0
-0.000000 0.000000 0
-0.000000 0.000000 0
0.000000 0.000000 0
0.000000 0.000000 0
0.000000 0.000000 0
0.000000 0.000000 0
0.000000 0.000000 0
0.000000 0.000000 0
0.000000 0.000000 0
0.000000 0.000000 0
0.000000 0.000000 0
0.000000 0.000000 0
0.000000 0.000000 0
0.000000 0.000000 0
0.000000 -0.000001 0
0.000060 -0.000060 0
0.000081 -0.000023 0
-0.000014 0.000056 0
-0.000255 0.000144 0
-0.000644 0.000228 0
-0.001170 0.000301 0
-0.001813 0.000362 0
-0.002554 0.000411 0
-0.003372 0.000448 0
-0.004248 0.000475 0
-0.005164 0.000493 0
-0.006104 0.000502 0
-0.007053 0.000503 0
-0.007997 0.000498 0
-0.008923 0.000486 0
-0.009818 0.000467 0
-0.010671 0.000441 0
-0.011467 0.000410 0
-0.012196 0.000371 0
-0.012844 0.000326 0
-0.013399 0.000274 0
-0.013850 0.000216 0
-0.014185 0.000152 0
-0.014395 0.000082 0
-0.014471 0.000009 0
-0.014407 -0.000068 0
-0.014200 -0.000146 0
-0.013849 -0.000225 0
-0.013355 -0.000301 0
-0.012726 -0.000373 0
-0.011971 -0.000439 0
-0.011103 -0.000496 0
-0.010140 -0.000543 0
-0.009101 -0.000578 0
-0.008010 -0.000600 0
-0.006892 -0.000606 0
-0.005774 -0.000598 0
-0.004684 -0.000574 0
-0.003650 -0.000534 0
-0.002696 -0.000481 0
-0.001847 -0.000415 0
-0.001123 -0.000339 0
-0.000539 -0.000255 0
-0.000107 -0.000167 0
0.000172 -0.000079 0
0.000304 0.000002 0
0.000305 0.000066 0
0.000212 0.000100 0
0.000082 0.000082 0
0.000000 -0.000000 0
0.000000 -0.000000 0
0.000024 -0.000081 0
-0.000075 0.000075 0
-0.000385 0.000337 0
-0.000943 0.000631 0
-0.001752 0.000915 0
-0.002794 0.001168 0
-0.004041 0.001384 0
-0.005461 0.001558 0
-0.007018 0.001694 0
-0.008679 0.001792 0
-0.010413 0.001856 0
-0.012190 0.001889 0
-0.013981 0.001893 0
-0.015761 0.001870 0
-0.017504 0.001822 0
-0.019187 0.001748 0
-0.020784 0.001649 0
-0.022273 0.001525 0
-0.023631 0.001376 0
-0.024834 0.001203 0
-0.025859 0.001006 0
-0.026687 0.000786 0
-0.027297 0.000545 0
-0.027672 0.000286 0
-0.027797 0.000013 0
-0.027664 -0.000271 0
-0.027265 -0.000559 0
-0.026601 -0.000845 0
-0.025677 -0.001122 0
-0.024504 -0.001384 0
-0.023101 -0.001623 0
-0.021493 -0.001832 0
-0.019710 -0.002003 0
-0.017789 -0.002130 0
-0.015772 -0.002209 0
-0.013704 -0.002235 0
-0.011632 -0.002207 0
-0.009607 -0.002124 0
-0.007675 -0.001988 0
-0.005884 -0.001803 0
-0.004275 -0.001573 0
-0.002882 -0.001308 0
-0.001735 -0.001016 0
-0.000850 -0.000712 0
-0.000231 -0.000410 0
0.000131 -0.000133 0
0.000268 0.000091 0
0.000231 0.000223 0
0.000102 0.000212 0
0.000000 -0.000000 0
0.000000 0.000000 0
-0.000056 0.000016 0
-0.000349 0.000387 0
-0.000947 0.000924 0
-0.001877 0.001510 0
-0.003135 0.002078 0
-0.004698 0.002590 0
-0.006531 0.003029 0
-0.008592 0.003388 0
-0.010835 0.003667 0
-0.013218 0.003871 0
-0.015696 0.004003 0
-0.018230 0.004070 0
-0.020780 0.004074 0
-0.023310 0.004021 0
-0.025783 0.003911 0
-0.028165 0.003747 0
-0.030423 0.003528 0
-0.032523 0.003256 0
-0.034432 0.002931 0
-0.036119 0.002555 0
-0.037552 0.002127 0
-0.038703 0.001653 0
-0.039545 0.001136 0
-0.040056 0.000583 0
-0.040218 0.000001 0
-0.040016 -0.000600 0
-0.039445 -0.001209 0
-0.038506 -0.001813 0
-0.037205 -0.002397 0
-0.035560 -0.002948 0
-0.033597 -0.003450 0
-0.031350 -0.003887 0
-0.028859 -0.004247 0
-0.026176 -0.004516 0
-0.023356 -0.004685 0
-0.020461 -0.004746 0
-0.017554 -0.004695 0
-0.014702 -0.004531 0
-0.011970 -0.004257 0
-0.009419 -0.003882 0
-0.007106 -0.003417 0
-0.005078 -0.002879 0
-0.003373 -0.002288 0
-0.002015 -0.001671 0
-0.001009 -0.001060 0
-0.000345 -0.000497 0
0.000012 -0.000033 0
0.000123 0.000265 0
0.000076 0.000313 0
0.000000 -0.000000 0
0.000000 0.000001 0
-0.000153 0.000269 0
-0.000675 0.000965 0
-0.001602 0.001864 0
-0.002938 0.002818 0
-0.004668 0.003735 0
-0.006760 0.004564 0
-0.009170 0.005277 0
-0.011848 0.005863 0
-0.014742 0.006320 0
-0.017799 0.006653 0
-0.020967 0.006868 0
-0.024197 0.006973 0
-0.027441 0.006972 0
-0.030653 0.006873 0
-0.033788 0.006677 0
-0.036802 0.006388 0
-0.039654 0.006007 0
-0.042302 0.005534 0
-0.044705 0.004972 0
-0.046823 0.004323 0
-0.048619 0.003590 0
-0.050057 0.002779 0
-0.051106 0.001898 0
-0.051739 0.000958 0
-0.051933 -0.000028 0
-0.051675 -0.001043 0
-0.050955 -0.002069 0
-0.049776 -0.003085 0
-0.048149 -0.004067 0
-0.046094 -0.004992 0
-0.043642 -0.005834 0
-0.040835 -0.006570 0
-0.037724 -0.007176 0
-0.034368 -0.007633 0
-0.030837 -0.007924 0
-0.027202 -0.008038 0
-0.023543 -0.007966 0
-0.019939 -0.007709 0
-0.016469 -0.007271 0
-0.013207 -0.006667 0
-0.010223 -0.005914 0
-0.007575 -0.005040 0
-0.005309 -0.004080 0
-0.003455 -0.003076 0
-0.002025 -0.002080 0
-0.001009 -0.001154 0
-0.000374 -0.000376 0
-0.000059 0.000159 0
0.000026 0.000335 0
0.000000 -0.000000 0
0.000000 0.000001 0
-0.000253 0.000692 0
-0.001019 0.001835 0
-0.002293 0.003185 0
-0.004054 0.004576 0
-0.006270 0.005900 0
-0.008895 0.007092 0
-0.011876 0.008117 0
-0.015155 0.008960 0
-0.018673 0.009618 0
-0.022370 0.010096 0
-0.026186 0.010401 0
-0.030066 0.010543 0
-0.033953 0.010530 0
-0.037795 0.010367 0
-0.041539 0.010061 0
-0.045134 0.009614 0
-0.048531 0.009028 0
-0.051680 0.008307 0
-0.054535 0.007452 0
-0.057049 0.006468 0
-0.059179 0.005362 0
-0.060884 0.004141 0
-0.062129 0.002818 0
-0.062881 0.001410 0
-0.063116 -0.000064 0
-0.062818 -0.001579 0
-0.061977 -0.003108 0
-0.060597 -0.004619 0
-0.058689 -0.006080 0
-0.056278 -0.007455 0
-0.053398 -0.008708 0
-0.050096 -0.009805 0
-0.046431 -0.010714 0
-0.042471 -0.011404 0
-0.038292 -0.011852 0
-0.033980 -0.012040 0
-0.029624 -0.011958 0
-0.025314 -0.011605 0
-0.021143 -0.010989 0
-0.017196 -0.010128 0
-0.013554 -0.009049 0
-0.010286 -0.007793 0
-0.007447 -0.006408 0
-0.005076 -0.004955 0
-0.003190 -0.003506 0
-0.001786 -0.002148 0
-0.000833 -0.000984 0
-0.000277 -0.000134 0
-0.000036 0.000254 0
0.000000 -0.000000 0
0.000000 0.000000 0
-0.000352 0.001288 0
-0.001363 0.003004 0
-0.002989 0.004898 0
-0.005182 0.006795 0
-0.007887 0.008576 0
-0.011044 0.010171 0
-0.014589 0.011538 0
-0.018455 0.012661 0
-0.022577 0.013535 0
-0.026886 0.014166 0
-0.031319 0.014564 0
-0.035812 0.014739 0
-0.040305 0.014701 0
-0.044736 0.014458 0
-0.049049 0.014016 0
-0.053186 0.013380 0
-0.057092 0.012553 0
-0.060712 0.011539 0
-0.063992 0.010341 0
-0.066881 0.008967 0
-0.069330 0.007425 0
-0.071295 0.005728 0
-0.072735 0.003895 0
-0.073615 0.001946 0
-0.073909 -0.000091 0
-0.073596 -0.002182 0
-0.072668 -0.004290 0
-0.071126 -0.006373 0
-0.068983 -0.008387 0
-0.066265 -0.010284 0
-0.063009 -0.012016 0
-0.059266 -0.013536 0
-0.055100 -0.014802 0
-0.050585 -0.015772 0
-0.045806 -0.016415 0
-0.040857 -0.016706 0
-0.035837 -0.016632 0
-0.030847 -0.016190 0
-0.025990 -0.015390 0
-0.021365 -0.014255 0
-0.017063 -0.012824 0
-0.013164 -0.011147 0
-0.009734 -0.009290 0
-0.006821 -0.007333 0
-0.004452 -0.005370 0
-0.002630 -0.003511 0
-0.001333 -0.001885 0
-0.000514 -0.000638 0
-0.000101 0.000058 0
0.000000 -0.000000 0
0.000000 0.000000 0
-0.000447 0.002055 0
-0.001699 0.004471 0
-0.003674 0.007003 0
-0.006295 0.009474 0
-0.009485 0.011762 0
-0.013168 0.013795 0
-0.017267 0.015529 0
-0.021707 0.016948 0
-0.026414 0.018049 0
-0.031314 0.018838 0
-0.036337 0.019327 0
-0.041415 0.019528 0
-0.046482 0.019453 0
-0.051473 0.019112 0
-0.056326 0.018511 0
-0.060978 0.017657 0
-0.065368 0.016553 0
-0.069437 0.015206 0
-0.073127 0.013621 0
-0.076382 0.011807 0
-0.079149 0.009776 0
-0.081378 0.007545 0
-0.083025 0.005138 0
-0.084053 0.002584 0
-0.084430 -0.000083 0
-0.084136 -0.002819 0
-0.083158 -0.005577 0
-0.081497 -0.008304 0
-0.079164 -0.010942 0
-0.076186 -0.013430 0
-0.072602 -0.015707 0
-0.068464 -0.017714 0
-0.063840 -0.019395 0
-0.058809 -0.020697 0
-0.053462 -0.021579 0
-0.047901 -0.022009 0
-0.042234 -0.021968 0
-0.036573 -0.021451 0
-0.031031 -0.020471 0
-0.025720 -0.019055 0
-0.020743 -0.017250 0
-0.016193 -0.015121 0
-0.012147 -0.012750 0
-0.008665 -0.010237 0
-0.005784 -0.007698 0
-0.003518 -0.005268 0
-0.001855 -0.003100 0
-0.000758 -0.001366 0
-0.000166 -0.000260 0
0.000000 -0.000000 0
0.000000 -0.000000 0
-0.000538 0.002986 0
-0.002022 0.006230 0
-0.004337 0.009494 0
-0.007377 0.012606 0
-0.011043 0.015450 0
-0.015241 0.017954 0
-0.019882 0.020078 0
-0.024880 0.021807 0
-0.030153 0.023141 0
-0.035622 0.024089 0
-0.041213 0.024665 0
-0.046853 0.024885 0
-0.052471 0.024760 0
-0.057999 0.024302 0
-0.063370 0.023521 0
-0.068517 0.022422 0
-0.073377 0.021013 0
-0.077886 0.019298 0
-0.081981 0.017286 0
-0.085602 0.014988 0
-0.088693 0.012421 0
-0.091201 0.009605 0
-0.093077 0.006570 0
-0.094279 0.003351 0
-0.094775 -0.000008 0
-0.094537 -0.003454 0
-0.093553 -0.006929 0
-0.091818 -0.010367 0
-0.089344 -0.013697 0
-0.086154 -0.016846 0
-0.082287 -0.019738 0
-0.077797 -0.022298 0
-0.072752 -0.024457 0
-0.067236 -0.026149 0
-0.061345 -0.027322 0
-0.055187 -0.027934 0
-0.048878 -0.027960 0
-0.042542 -0.027392 0
-0.036304 -0.026242 0
-0.030288 -0.024544 0
-0.024610 -0.022352 0
-0.019378 -0.019743 0
-0.014684 -0.016818 0
-0.010600 -0.013696 0
-0.007177 -0.010517 0
-0.004442 -0.007440 0
-0.002393 -0.004645 0
-0.001006 -0.002326 0
-0.000232 -0.000700 0
0.000000 -0.000000 0
0.000000 -0.000000 0
-0.000624 0.004076 0
-0.002330 0.008270 0
-0.004973 0.012359 0
-0.008418 0.016180 0
-0.012545 0.019627 0
-0.017243 0.022634 0
-0.022408 0.025168 0
-0.027947 0.027219 0
-0.033767 0.028791 0
-0.039787 0.029899 0
-0.045925 0.030558 0
-0.052106 0.030786 0
-0.058255 0.030599 0
-0.064301 0.030011 0
-0.070174 0.029029 0
-0.075806 0.027664 0
-0.081127 0.025922 0
-0.086072 0.023810 0
-0.090574 0.021338 0
-0.094571 0.018520 0
-0.098003 0.015375 0
-0.100811 0.011929 0
-0.102945 0.008217 0
-0.104357 0.004281 0
-0.105011 0.000175 0
-0.104876 -0.004041 0
-0.103934 -0.008296 0
-0.102177 -0.012513 0
-0.099613 -0.016606 0
-0.096261 -0.020487 0
-0.092158 -0.024065 0
-0.087357 -0.027249 0
-0.081927 -0.029956 0
-0.075952 -0.032104 0
-0.069535 -0.033629 0
-0.062787 -0.034476 0
-0.055835 -0.034613 0
-0.048813 -0.034025 0
-0.041858 -0.032725 0
-0.035107 -0.030749 0
-0.028695 -0.028160 0
-0.022744 -0.025048 0
-0.017361 -0.021529 0
-0.012638 -0.017743 0
-0.008639 -0.013856 0
-0.005405 -0.010052 0
-0.002950 -0.006535 0
-0.001260 -0.003528 0
-0.000297 -0.001266 0
0.000000 -0.000000 0
0.000000 -0.000000 0
-0.000705 0.005316 0
-0.002623 0.010579 0
-0.005578 0.015582 0
-0.009411 0.020179 0
-0.013981 0.024275 0
-0.019159 0.027817 0
-0.024830 0.030781 0
-0.030887 0.033166 0
-0.037236 0.034981 0
-0.043784 0.036247 0
-0.050450 0.036984 0
-0.057152 0.037214 0
-0.063815 0.036955 0
-0.070364 0.036222 0
-0.076728 0.035025 0
-0.082834 0.033375 0
-0.088614 0.031279 0
-0.093997 0.028745 0
-0.098916 0.025786 0
-0.103304 0.022417 0
-0.107097 0.018660 0
-0.110235 0.014547 0
-0.112661 0.010116 0
-0.114325 0.005417 0
-0.115184 0.000511 0
-0.115203 -0.004531 0
-0.114358 -0.009628 0
-0.112635 -0.014688 0
-0.110036 -0.019614 0
-0.106575 -0.024301 0
-0.102287 -0.028642 0
-0.097219 -0.032530 0
-0.091439 -0.035861 0
-0.085034 -0.038541 0
-0.078106 -0.040488 0
-0.070775 -0.041634 0
-0.063174 -0.041934 0
-0.055448 -0.041370 0
-0.047749 -0.039948 0
-0.040230 -0.037706 0
-0.033041 -0.034716 0
-0.026325 -0.031077 0
-0.020208 -0.026924 0
-0.014800 -0.022418 0
-0.010185 -0.017749 0
-0.006420 -0.013129 0
-0.003533 -0.008790 0
-0.001523 -0.004980 0
-0.000363 -0.001961 0
0.000000 -0.000000 0
0.000000 -0.000000 0
-0.000781 0.006699 0
-0.002899 0.013143 0
-0.006149 0.019147 0
-0.010350 0.024583 0
-0.015341 0.029374 0
-0.020976 0.033483 0
-0.027129 0.036896 0
-0.033683 0.039625 0
-0.040536 0.041688 0
-0.047592 0.043113 0
-0.054764 0.043925 0
-0.061968 0.044151 0
-0.069128 0.043812 0
-0.076166 0.042923 0
-0.083010 0.041500 0
-0.089586 0.039550 0
-0.095824 0.037084 0
-0.101651 0.034112 0
-0.106997 0.030644 0
-0.111795 0.026701 0
-0.115976 0.022306 0
-0.119476 0.017493 0
-0.122235 0.012308 0
-0.124197 0.006805 0
-0.125313 0.001053 0
-0.125542 -0.004868 0
-0.124853 -0.010865 0
-0.123225 -0.016835 0
-0.120653 -0.022665 0
-0.117144 -0.028235 0
-0.112724 -0.033421 0
-0.107438 -0.038097 0
-0.101350 -0.042140 0
-0.094543 -0.045438 0
-0.087124 -0.047888 0
-0.079216 -0.049408 0
-0.070960 -0.049939 0
-0.062512 -0.049450 0
-0.054039 -0.047944 0
-0.045711 -0.045457 0
-0.037698 -0.042065 0
-0.030165 -0.037880 0
-0.023261 -0.033053 0
-0.017117 -0.027767 0
-0.011838 -0.022237 0
-0.007500 -0.016704 0
-0.004150 -0.011431 0
-0.001800 -0.006697 0
-0.000432 -0.002789 0
0.000000 -0.000000 0
0.000000 -0.000000 0
-0.000852 0.008215 0
-0.003156 0.015947 0
-0.006683 0.023034 0
-0.011230 0.029370 0
-0.016616 0.034901 0
-0.022683 0.039605 0
-0.029291 0.043488 0
-0.036316 0.046573 0
-0.043648 0.048890 0
-0.051186 0.050475 0
-0.058841 0.051361 0
-0.066528 0.051579 0
-0.074166 0.051153 0
-0.081680 0.050104 0
-0.088994 0.048445 0
-0.096035 0.046189 0
-0.102730 0.043343 0
-0.109008 0.039919 0
-0.114795 0.035930 0
-0.120022 0.031395 0
-0.124619 0.026341 0
-0.128516 0.020806 0
-0.131650 0.014837 0
-0.133960 0.008496 0
-0.135389 0.001857 0
-0.135889 -0.004991 0
-0.135420 -0.011944 0
-0.133955 -0.018888 0
-0.131476 -0.025696 0
-0.127983 -0.032230 0
-0.123494 -0.038348 0
-0.118046 -0.043904 0
-0.111696 -0.048756 0
-0.104525 -0.052767 0
-0.096640 -0.055815 0
-0.088165 -0.057798 0
-0.079251 -0.058638 0
-0.070064 -0.058291 0
-0.060786 -0.056749 0
-0.051608 -0.054047 0
-0.042721 -0.050261 0
-0.034314 -0.045514 0
-0.026562 -0.039972 0
-0.019622 -0.033842 0
-0.013624 -0.027366 0
-0.008667 -0.020816 0
-0.004815 -0.014490 0
-0.002098 -0.008698 0
-0.000506 -0.003761 0
0.000000 -0.000000 0
0.000000 0.000000 0
-0.000918 0.009855 0
-0.003394 0.018975 0
-0.007178 0.027221 0
-0.012045 0.034516 0
-0.017799 0.040827 0
-0.024268 0.046157 0
-0.031301 0.050529 0
-0.038767 0.053982 0
-0.046549 0.056559 0
-0.054543 0.058307 0
-0.062657 0.059267 0
-0.070802 0.059476 0
-0.078900 0.058963 0
-0.086872 0.057751 0
-0.094644 0.055855 0
-0.102143 0.053287 0
-0.109295 0.050057 0
-0.116028 0.046177 0
-0.122269 0.041659 0
-0.127946 0.036524 0
-0.132985 0.030800 0
-0.137315 0.024525 0
-0.140867 0.017751 0
-0.143574 0.010543 0
-0.145373 0.002982 0
-0.146208 -0.004836 0
-0.146028 -0.012799 0
-0.144796 -0.020779 0
-0.142484 -0.028636 0
-0.139081 -0.036217 0
-0.134592 -0.043359 0
-0.129046 -0.049895 0
-0.122491 -0.055661 0
-0.115003 -0.060494 0
-0.106684 -0.064248 0
-0.097663 -0.066796 0
-0.088095 -0.068040 0
-0.078157 -0.067915 0
-0.068047 -0.066401 0
-0.057977 -0.063523 0
-0.048162 -0.059359 0
-0.038820 -0.054039 0
-0.030155 -0.047745 0
-0.022353 -0.040705 0
-0.015573 -0.033192 0
-0.009940 -0.025513 0
-0.005541 -0.018001 0
-0.002422 -0.011006 0
-0.000587 -0.004887 0
0.000000 -0.000000 0
0.000000 0.000000 0
-0.000978 0.011610 0
-0.003611 0.022207 0
-0.007629 0.031684 0
-0.012789 0.039991 0
-0.018881 0.047124 0
-0.025719 0.053108 0
-0.033145 0.057988 0
-0.041018 0.061821 0
-0.049218 0.064666 0
-0.057637 0.066582 0
-0.066180 0.067619 0
-0.074758 0.067822 0
-0.083291 0.067223 0
-0.091703 0.065848 0
-0.099918 0.063716 0
-0.107864 0.060840 0
-0.115469 0.057229 0
-0.122660 0.052893 0
-0.129364 0.047847 0
-0.135506 0.042110 0
-0.141012 0.035711 0
-0.145808 0.028688 0
-0.149819 0.021096 0
-0.152973 0.013002 0
-0.155199 0.004490 0
-0.156432 -0.004336 0
-0.156612 -0.013356 0
-0.155689 -0.022433 0
-0.153623 -0.031411 0
-0.150389 -0.040122 0
-0.145980 -0.048383 0
-0.140410 -0.056006 0
-0.133718 -0.062798 0
-0.125971 -0.068573 0
-0.117265 -0.073155 0
-0.107729 -0.076387 0
-0.097521 -0.078144 0
-0.086829 -0.078339 0
-0.075867 -0.076930 0
-0.064867 -0.073932 0
-0.054074 -0.069417 0
-0.043734 -0.063521 0
-0.034085 -0.056439 0
-0.025348 -0.048424 0
-0.017716 -0.039779 0
-0.011343 -0.030848 0
-0.006342 -0.022008 0
-0.002781 -0.013652 0
-0.000677 -0.006183 0
0.000000 -0.000000 0
0.000000 0.000000 0
-0.001032 0.013467 0
-0.003806 0.025625 0
-0.008033 0.036398 0
-0.013456 0.045767 0
-0.019852 0.053758 0
-0.027025 0.060422 0
-0.034806 0.065829 0
-0.043051 0.070055 0
-0.051632 0.073178 0
-0.060441 0.075268 0
-0.069380 0.076388 0
-0.078360 0.076588 0
-0.087301 0.075908 0
-0.096128 0.074377 0
-0.104766 0.072016 0
-0.113145 0.068838 0
-0.121192 0.064853 0
-0.128837 0.060071 0
-0.136006 0.054505 0
-0.142625 0.048172 0
-0.148618 0.041102 0
-0.153906 0.033332 0
-0.158413 0.024916 0
-0.162059 0.015923 0
-0.164767 0.006442 0
-0.166461 -0.003422 0
-0.167073 -0.013542 0
-0.166536 -0.023769 0
-0.164799 -0.033937 0
-0.161821 -0.043860 0
-0.157579 -0.053338 0
-0.152072 -0.062157 0
-0.145325 -0.070099 0
-0.137392 -0.076946 0
-0.128361 -0.082490 0
-0.118357 -0.086541 0
-0.107539 -0.088939 0
-0.096103 -0.089569 0
-0.084279 -0.088363 0
-0.072320 -0.085316 0
-0.060500 -0.080493 0
-0.049100 -0.074028 0
-0.038395 -0.066130 0
-0.028646 -0.057074 0
-0.020083 -0.047198 0
-0.012897 -0.036886 0
-0.007233 -0.026562 0
-0.003181 -0.016672 0
-0.000777 -0.007668 0
0.000000 -0.000000 0
0.000000 0.000000 0
-0.001078 0.015415 0
-0.003975 0.029208 0
-0.008386 0.041334 0
-0.014041 0.051810 0
-0.020704 0.060692 0
-0.028172 0.068062 0
-0.036269 0.074014 0
-0.044844 0.078647 0
-0.053768 0.082057 0
-0.062927 0.084329 0
-0.072224 0.085538 0
-0.081570 0.085743 0
-0.090886 0.084990 0
-0.100097 0.083313 0
-0.109132 0.080733 0
-0.117921 0.077266 0
-0.126394 0.072921 0
-0.134482 0.067707 0
-0.142112 0.061635 0
-0.149210 0.054722 0
-0.155699 0.046992 0
-0.161500 0.038484 0
-0.166531 0.029248 0
-0.170709 0.019355 0
-0.173947 0.008893 0
-0.176162 -0.002030 0
-0.177273 -0.013281 0
-0.177202 -0.024706 0
-0.175880 -0.036126 0
-0.173251 -0.047342 0
-0.169273 -0.058132 0
-0.163927 -0.068260 0
-0.157220 -0.077479 0
-0.149191 -0.085537 0
-0.139915 -0.092190 0
-0.129508 -0.097210 0
-0.118128 -0.100398 0
-0.105976 -0.101599 0
-0.093295 -0.100713 0
-0.080360 -0.097710 0
-0.067474 -0.092638 0
-0.054956 -0.085626 0
-0.043123 -0.076893 0
-0.032280 -0.066736 0
-0.022703 -0.055527 0
-0.014625 -0.043698 0
-0.008227 -0.031724 0
-0.003630 -0.020108 0
-0.000890 -0.009364 0
0.000000 -0.000000 0
0.000000 0.000000 0
-0.001118 0.017442 0
-0.004118 0.032932 0
-0.008684 0.046463 0
-0.014536 0.058086 0
-0.021429 0.067889 0
-0.029150 0.075987 0
-0.037519 0.082501 0
-0.046381 0.087554 0
-0.055601 0.091261 0
-0.065067 0.093724 0
-0.074678 0.095031 0
-0.084349 0.095250 0
-0.093999 0.094435 0
-0.103557 0.092623 0
-0.112954 0.089840 0
-0.122123 0.086100 0
-0.130996 0.081414 0
-0.139505 0.075789 0
-0.147581 0.069233 0
-0.155151 0.061760 0
-0.162137 0.053392 0
-0.168460 0.044164 0
-0.174034 0.034124 0
-0.178771 0.023339 0
-0.182580 0.011895 0
-0.185369 -0.000096 0
-0.187043 -0.012502 0
-0.187513 -0.025162 0
-0.186693 -0.037888 0
-0.184508 -0.050468 0
-0.180898 -0.062662 0
-0.175822 -0.074210 0
-0.169266 -0.084835 0
-0.161249 -0.094251 0
-0.151829 -0.102173 0
-0.141108 -0.108328 0
-0.129237 -0.112471 0
-0.116419 -0.114402 0
-0.102906 -0.113979 0
-0.088994 -0.111137 0
-0.075017 -0.105897 0
-0.061331 -0.098379 0
-0.048301 -0.088806 0
-0.036284 -0.077494 0
-0.025605 -0.064852 0
-0.016549 -0.051362 0
-0.009340 -0.037558 0
-0.004135 -0.024009 0
-0.001018 -0.011298 0
0.000000 -0.000000 0
0.000000 0.000000 0
-0.001149 0.019534 0
-0.004233 0.036774 0
-0.008925 0.051752 0
-0.014938 0.064555 0
-0.022018 0.075307 0
-0.029948 0.084152 0
-0.038542 0.091244 0
-0.047641 0.096729 0
-0.057110 0.100743 0
-0.066832 0.103406 0
-0.076710 0.104820 0
-0.086656 0.105064 0
-0.096594 0.104199 0
-0.106454 0.102268 0