# vtk DataFile Version 2.0
generated by CFD-lab course output (written by Tobias Neckel) 
ASCII

DATASET STRUCTURED_GRID
DIMENSIONS  51 51 1 
POINTS 2601 float

0.000000 0.000000 0
0.020000 0.000000 0
0.040000 0.000000 0
0.060000 0.000000 0
0.080000 0.000000 0
0.100000 0.000000 0
0.120000 0.000000 0
0.140000 0.000000 0
0.160000 0.000000 0
0.180000 0.000000 0
0.200000 0.000000 0
0.220000 0.000000 0
0.240000 0.000000 0
0.260000 0.000000 0
0.280000 0.000000 0
0.300000 0.000000 0
0.320000 0.000000 0
0.340000 0.000000 0
0.360000 0.000000 0
0.380000 0.000000 0
0.400000 0.000000 0
0.420000 0.000000 0
0.440000 0.000000 0
0.460000 0.000000 0
0.480000 0.000000 0
0.500000 0.000000 0
0.520000 0.000000 0
0.540000 0.000000 0
0.560000 0.000000 0
0.580000 0.000000 0
0.600000 0.000000 0
0.620000 0.000000 0
0.640000 0.000000 0
0.660000 0.000000 0
0.680000 0.000000 0
0.700000 0.000000 0
0.720000 0.000000 0
0.740000 0.000000 0
0.760000 0.000000 0
0.780000 0.000000 0
0.800000 0.000000 0
0.820000 0.000000 0
0.840000 0.000000 0
0.860000 0.000000 0
0.880000 0.000000 0
0.900000 0.000000 0
0.920000 0.000000 0
0.940000 0.000000 0
0.960000 0.000000 0
0.980000 0.000000 0
1.000000 0.000000 0
0.000000 0.020000 0
0.020000 0.020000 0
0.040000 0.020000 0
0.060000 0.020000 0
0.080000 0.020000 0
0.100000 0.020000 0
0.120000 0.020000 0
0.140000 0.020000 0
0.160000 0.020000 0
0.180000 0.020000 0
0.200000 0.020000 0
0.220000 0.020000 0
0.240000 0.020000 0
0.260000 0.020000 0
0.280000 0.020000 0
0.300000 0.020000 0
0.320000 0.020000 0
0.340000 0.020000 0
0.360000 0.020000 0
0.380000 0.020000 0
0.400000 0.020000 0
0.420000 0.020000 0
0.440000 0.020000 0
0.460000 0.020000 0
0.480000 0.020000 0
0.500000 0.020000 0
0.520000 0.020000 0
0.540000 0.020000 0
0.560000 0.020000 0
0.580000 0.020000 0
0.600000 0.020000 0
0.620000 0.020000 0
0.640000 0.020000 0
0.660000 0.020000 0
0.680000 0.020000 0
0.700000 0.020000 0
0.720000 0.020000 0
0.740000 0.020000 0
0.760000 0.020000 0
0.780000 0.020000 0
0.800000 0.020000 0
0.820000 0.020000 0
0.840000 0.020000 0
0.860000 0.020000 0
0.880000 0.020000 0
0.900000 0.020000 0
0.920000 0.020000 0
0.940000 0.020000 0
0.960000 0.020000 0
0.980000 0.020000 0
1.000000 0.020000 0
0.000000 0.040000 0
0.020000 0.040000 0
0.040000 0.040000 0
0.060000 0.040000 0
0.080000 0.040000 0
0.100000 0.040000 0
0.120000 0.040000 0
0.140000 0.040000 0
0.160000 0.040000 0
0.180000 0.040000 0
0.200000 0.040000 0
0.220000 0.040000 0
0.240000 0.040000 0
0.260000 0.040000 0
0.280000 0.040000 0
0.300000 0.040000 0
0.320000 0.040000 0
0.340000 0.040000 0
0.360000 0.040000 0
0.380000 0.040000 0
0.400000 0.040000 0
0.420000 0.040000 0
0.440000 0.040000 0
0.460000 0.040000 0
0.480000 0.040000 0
0.500000 0.040000 0
0.520000 0.040000 0
0.540000 0.040000 0
0.560000 0.040000 0
0.580000 0.040000 0
0.600000 0.040000 0
0.620000 0.040000 0
0.640000 0.040000 0
0.660000 0.040000 0
0.680000 0.040000 0
0.700000 0.040000 0
0.720000 0.040000 0
0.740000 0.040000 0
0.760000 0.040000 0
0.780000 0.040000 0
0.800000 0.040000 0
0.820000 0.040000 0
0.840000 0.040000 0
0.860000 0.040000 0
0.880000 0.040000 0
0.900000 0.040000 0
0.920000 0.040000 0
0.940000 0.040000 0
0.960000 0.040000 0
0.980000 0.040000 0
1.000000 0.040000 0
0.000000 0.060000 0
0.020000 0.060000 0
0.040000 0.060000 0
0.060000 0.060000 0
0.080000 0.060000 0
0.100000 0.060000 0
0.120000 0.060000 0
0.140000 0.060000 0
0.160000 0.060000 0
0.180000 0.060000 0
0.200000 0.060000 0
0.220000 0.060000 0
0.240000 0.060000 0
0.260000 0.060000 0
0.280000 0.060000 0
0.300000 0.060000 0
0.320000 0.060000 0
0.340000 0.060000 0
0.360000 0.060000 0
0.380000 0.060000 0
0.400000 0.060000 0
0.420000 0.060000 0
0.440000 0.060000 0
0.460000 0.060000 0
0.480000 0.060000 0
0.500000 0.060000 0
0.520000 0.060000 0
0.540000 0.060000 0
0.560000 0.060000 0
0.580000 0.060000 0
0.600000 0.060000 0
0.620000 0.060000 0
0.640000 0.060000 0
0.660000 0.060000 0
0.680000 0.060000 0
0.700000 0.060000 0
0.720000 0.060000 0
0.740000 0.060000 0
0.760000 0.060000 0
0.780000 0.060000 0
0.800000 0.060000 0
0.820000 0.060000 0
0.840000 0.060000 0
0.860000 0.060000 0
0.880000 0.060000 0
0.900000 0.060000 0
0.920000 0.060000 0
0.940000 0.060000 0
0.960000 0.060000 0
0.980000 0.060000 0
1.000000 0.060000 0
0.000000 0.080000 0
0.020000 0.080000 0
0.040000 0.080000 0
0.060000 0.080000 0
0.080000 0.080000 0
0.100000 0.080000 0
0.120000 0.080000 0
0.140000 0.080000 0
0.160000 0.080000 0
0.180000 0.080000 0
0.200000 0.080000 0
0.220000 0.080000 0
0.240000 0.080000 0
0.260000 0.080000 0
0.280000 0.080000 0
0.300000 0.080000 0
0.320000 0.080000 0
0.340000 0.080000 0
0.360000 0.080000 0
0.380000 0.080000 0
0.400000 0.080000 0
0.420000 0.080000 0
0.440000 0.080000 0
0.460000 0.080000 0
0.480000 0.080000 0
0.500000 0.080000 0
0.520000 0.080000 0
0.540000 0.080000 0
0.560000 0.080000 0
0.580000 0.080000 0
0.600000 0.080000 0
0.620000 0.080000 0
0.640000 0.080000 0
0.660000 0.080000 0
0.680000 0.080000 0
0.700000 0.080000 0
0.720000 0.080000 0
0.740000 0.080000 0
0.760000 0.080000 0
0.780000 0.080000 0
0.800000 0.080000 0
0.820000 0.080000 0
0.840000 0.080000 0
0.860000 0.080000 0
0.880000 0.080000 0
0.900000 0.080000 0
0.920000 0.080000 0
0.940000 0.080000 0
0.960000 0.080000 0
0.980000 0.080000 0
1.000000 0.080000 0
0.000000 0.100000 0
0.020000 0.100000 0
0.040000 0.100000 0
0.060000 0.100000 0
0.080000 0.100000 0
0.100000 0.100000 0
0.120000 0.100000 0
0.140000 0.100000 0
0.160000 0.100000 0
0.180000 0.100000 0
0.200000 0.100000 0
0.220000 0.100000 0
0.240000 0.100000 0
0.260000 0.100000 0
0.280000 0.100000 0
0.300000 0.100000 0
0.320000 0.100000 0
0.340000 0.100000 0
0.360000 0.100000 0
0.380000 0.100000 0
0.400000 0.100000 0
0.420000 0.100000 0
0.440000 0.100000 0
0.460000 0.100000 0
0.480000 0.100000 0
0.500000 0.100000 0
0.520000 0.100000 0
0.540000 0.100000 0
0.560000 0.100000 0
0.580000 0.100000 0
0.600000 0.100000 0
0.620000 0.100000 0
0.640000 0.100000 0
0.660000 0.100000 0
0.680000 0.100000 0
0.700000 0.100000 0
0.720000 0.100000 0
0.740000 0.100000 0
0.760000 0.100000 0
0.780000 0.100000 0
0.800000 0.100000 0
0.820000 0.100000 0
0.840000 0.100000 0
0.860000 0.100000 0
0.880000 0.100000 0
0.900000 0.100000 0
0.920000 0.100000 0
0.940000 0.100000 0
0.960000 0.100000 0
0.980000 0.100000 0
1.000000 0.100000 0
0.000000 0.120000 0
0.020000 0.120000 0
0.040000 0.120000 0
0.060000 0.120000 0
0.080000 0.120000 0
0.100000 0.120000 0
0.120000 0.120000 0
0.140000 0.120000 0
0.160000 0.120000 0
0.180000 0.120000 0
0.200000 0.120000 0
0.220000 0.120000 0
0.240000 0.120000 0
0.260000 0.120000 0
0.280000 0.120000 0
0.300000 0.120000 0
0.320000 0.120000 0
0.340000 0.120000 0
0.360000 0.120000 0
0.380000 0.120000 0
0.400000 0.120000 0
0.420000 0.120000 0
0.440000 0.120000 0
0.460000 0.120000 0
0.480000 0.120000 0
0.500000 0.120000 0
0.520000 0.120000 0
0.540000 0.120000 0
0.560000 0.120000 0
0.580000 0.120000 0
0.600000 0.120000 0
0.620000 0.120000 0
0.640000 0.120000 0
0.660000 0.120000 0
0.680000 0.120000 0
0.700000 0.120000 0
0.720000 0.120000 0
0.740000 0.120000 0
0.760000 0.120000 0
0.780000 0.120000 0
0.800000 0.120000 0
0.820000 0.120000 0
0.840000 0.120000 0
0.860000 0.120000 0
0.880000 0.120000 0
0.900000 0.120000 0
0.920000 0.120000 0
0.940000 0.120000 0
0.960000 0.120000 0
0.980000 0.120000 0
1.000000 0.120000 0
0.000000 0.140000 0
0.020000 0.140000 0
0.040000 0.140000 0
0.060000 0.140000 0
0.080000 0.140000 0
0.100000 0.140000 0
0.120000 0.140000 0
0.140000 0.140000 0
0.160000 0.140000 0
0.180000 0.140000 0
0.200000 0.140000 0
0.220000 0.140000 0
0.240000 0.140000 0
0.260000 0.140000 0
0.280000 0.140000 0
0.300000 0.140000 0
0.320000 0.140000 0
0.340000 0.140000 0
0.360000 0.140000 0
0.380000 0.140000 0
0.400000 0.140000 0
0.420000 0.140000 0
0.440000 0.140000 0
0.460000 0.140000 0
0.480000 0.140000 0
0.500000 0.140000 0
0.520000 0.140000 0
0.540000 0.140000 0
0.560000 0.140000 0
0.580000 0.140000 0
0.600000 0.140000 0
0.620000 0.140000 0
0.640000 0.140000 0
0.660000 0.140000 0
0.680000 0.140000 0
0.700000 0.140000 0
0.720000 0.140000 0
0.740000 0.140000 0
0.760000 0.140000 0
0.780000 0.140000 0
0.800000 0.140000 0
0.820000 0.140000 0
0.840000 0.140000 0
0.860000 0.140000 0
0.880000 0.140000 0
0.900000 0.140000 0
0.920000 0.140000 0
0.940000 0.140000 0
0.960000 0.140000 0
0.980000 0.140000 0
1.000000 0.140000 0
0.000000 0.160000 0
0.020000 0.160000 0
0.040000 0.160000 0
0.060000 0.160000 0
0.080000 0.160000 0
0.100000 0.160000 0
0.120000 0.160000 0
0.140000 0.160000 0
0.160000 0.160000 0
0.180000 0.160000 0
0.200000 0.160000 0
0.220000 0.160000 0
0.240000 0.160000 0
0.260000 0.160000 0
0.280000 0.160000 0
0.300000 0.160000 0
0.320000 0.160000 0
0.340000 0.160000 0
0.360000 0.160000 0
0.380000 0.160000 0
0.400000 0.160000 0
0.420000 0.160000 0
0.440000 0.160000 0
0.460000 0.160000 0
0.480000 0.160000 0
0.500000 0.160000 0
0.520000 0.160000 0
0.540000 0.160000 0
0.560000 0.160000 0
0.580000 0.160000 0
0.600000 0.160000 0
0.620000 0.160000 0
0.640000 0.160000 0
0.660000 0.160000 0
0.680000 0.160000 0
0.700000 0.160000 0
0.720000 0.160000 0
0.740000 0.160000 0
0.760000 0.160000 0
0.780000 0.160000 0
0.800000 0.160000 0
0.820000 0.160000 0
0.840000 0.160000 0
0.860000 0.160000 0
0.880000 0.160000 0
0.900000 0.160000 0
0.920000 0.160000 0
0.940000 0.160000 0
0.960000 0.160000 0
0.980000 0.160000 0
1.000000 0.160000 0
0.000000 0.180000 0
0.020000 0.180000 0
0.040000 0.180000 0
0.060000 0.180000 0
0.080000 0.180000 0
0.100000 0.180000 0
0.120000 0.180000 0
0.140000 0.180000 0
0.160000 0.180000 0
0.180000 0.180000 0
0.200000 0.180000 0
0.220000 0.180000 0
0.240000 0.180000 0
0.260000 0.180000 0
0.280000 0.180000 0
0.300000 0.180000 0
0.320000 0.180000 0
0.340000 0.180000 0
0.360000 0.180000 0
0.380000 0.180000 0
0.400000 0.180000 0
0.420000 0.180000 0
0.440000 0.180000 0
0.460000 0.180000 0
0.480000 0.180000 0
0.500000 0.180000 0
0.520000 0.180000 0
0.540000 0.180000 0
0.560000 0.180000 0
0.580000 0.180000 0
0.600000 0.180000 0
0.620000 0.180000 0
[...]
POINT_DATA 2601 

VECTORS velocity float
0.000000 0.000000 0
0.000001 0.000000 0
0.000000 0.000000 0
-0.000001 0.000000 0
-0.000001 0.000000 0
-0.000000 0.000000 0
0.000000 0.000000 0
0.000000 0.000000 0
0.000000 0.000000 0
0.000000 0.000000 0
-0.000000 0.000000 0
-0.000000 0.000000 0
-0.000000 0.000000 0
0.000000 0.000000 0
0.000000 0.000000 0
0.000000 0.000000 0
0.000000 0.000000 0
-0.000000 0.000000 0
-0.000000 0.000000 0
-0.000000 0.000000 0
-0.000000 0.000000 0
-0.000000 0.000000 0
-0.000000 0.000000 0
-0.000000 0.000000 0
-0.000000 0.000000 0
-0.000000 0.000000 0
-0.000000 0.000000 0
-0.000000 0.000000 0
-0.000000 0.000000 0
-0.000000 0.000000 0
-0.000000 0.000000 0
-0.000000 0.000000 0
-0.000000 0.000000 0
-0.000000 0.000000 0
-0.000000 0.000000 0
-0.000000 0.000000 0
-0.000000 0.000000 0
0.000000 0.000000 0
0.000000 0.000000 0
0.000000 0.000000 0
0.000000 0.000000 0
0.000000 0.000000 0
0.000000 0.000000 0
0.000000 0.000000 0
0.000000 0.000000 0
-0.000000 0.000000 0
-0.000000 0.000000 0
0.000000 0.000000 0
0.000000 0.000000 0
0.000000 0.000000 0
0.000000 0.000000 0
0.000000 0.000001 0
0.000061 -0.000059 0
0.000081 -0.000023 0
-0.000015 0.000055 0
-0.000256 0.000143 0
-0.000645 0.000227 0
-0.001169 0.000301 0
-0.001812 0.000362 0
-0.002552 0.000411 0
-0.003370 0.000448 0
-0.004245 0.000475 0
-0.005160 0.000492 0
-0.006099 0.000501 0
-0.007047 0.000503 0
-0.007990 0.000497 0
-0.008916 0.000485 0
-0.009810 0.000466 0
-0.010662 0.000441 0
-0.011458 0.000409 0
-0.012186 0.000371 0
-0.012833 0.000326 0
-0.013388 0.000274 0
-0.013838 0.000216 0
-0.014173 0.000152 0
-0.014383 0.000082 0
-0.014459 0.000009 0
-0.014396 -0.000068 0
-0.014189 -0.000146 0
-0.013838 -0.000224 0
-0.013345 -0.000300 0
-0.012717 -0.000372 0
-0.011963 -0.000438 0
-0.011096 -0.000496 0
-0.010133 -0.000543 0
-0.009095 -0.000578 0
-0.008005 -0.000599 0
-0.006888 -0.000606 0
-0.005771 -0.000597 0
-0.004683 -0.000573 0
-0.003649 -0.000534 0
-0.002696 -0.000481 0
-0.001847 -0.000415 0
-0.001123 -0.000339 0
-0.000540 -0.000255 0
-0.000107 -0.000167 0
0.000171 -0.000079 0
0.000303 0.000001 0
0.000305 0.000066 0
0.000212 0.000100 0
0.000082 0.000082 0
0.000000 -0.000000 0
0.000000 0.000000 0
0.000024 -0.000081 0
-0.000076 0.000074 0
-0.000386 0.000336 0
-0.000943 0.000630 0
-0.001751 0.000914 0
-0.002792 0.001168 0
-0.004038 0.001383 0
-0.005456 0.001558 0
-0.007012 0.001692 0
-0.008672 0.001790 0
-0.010405 0.001854 0
-0.012179 0.001887 0
-0.013969 0.001891 0
-0.015748 0.001869 0
-0.017489 0.001820 0
-0.019170 0.001746 0
-0.020766 0.001647 0
-0.022254 0.001524 0
-0.023611 0.001375 0
-0.024812 0.001202 0
-0.025837 0.001005 0
-0.026664 0.000785 0
-0.027274 0.000545 0
-0.027649 0.000286 0
-0.027774 0.000013 0
-0.027641 -0.000270 0
-0.027243 -0.000558 0
-0.026580 -0.000844 0
-0.025657 -0.001121 0
-0.024486 -0.001383 0
-0.023084 -0.001622 0
-0.021478 -0.001830 0
-0.019697 -0.002001 0
-0.017778 -0.002128 0
-0.015762 -0.002207 0
-0.013696 -0.002233 0
-0.011626 -0.002205 0
-0.009602 -0.002123 0
-0.007672 -0.001987 0
-0.005882 -0.001802 0
-0.004274 -0.001572 0
-0.002882 -0.001307 0
-0.001736 -0.001016 0
-0.000851 -0.000712 0
-0.000232 -0.000410 0
0.000130 -0.000133 0
0.000267 0.000091 0
0.000230 0.000223 0
0.000102 0.000212 0
0.000000 -0.000000 0
0.000000 -0.000000 0
-0.000057 0.000015 0
-0.000350 0.000386 0
-0.000947 0.000923 0
-0.001875 0.001509 0
-0.003132 0.002077 0
-0.004694 0.002588 0
-0.006526 0.003026 0
-0.008585 0.003385 0
-0.010826 0.003664 0
-0.013207 0.003867 0
-0.015683 0.004000 0
-0.018214 0.004066 0
-0.020762 0.004071 0
-0.023289 0.004017 0
-0.025760 0.003908 0
-0.028140 0.003743 0
-0.030396 0.003525 0
-0.032494 0.003254 0
-0.034402 0.002929 0
-0.036087 0.002552 0
-0.037519 0.002126 0
-0.038669 0.001652 0
-0.039511 0.001136 0
-0.040022 0.000583 0
-0.040184 0.000001 0
-0.039983 -0.000599 0
-0.039413 -0.001207 0
-0.038475 -0.001811 0
-0.037176 -0.002395 0
-0.035533 -0.002945 0
-0.033572 -0.003446 0
-0.031327 -0.003883 0
-0.028839 -0.004243 0
-0.026158 -0.004512 0
-0.023341 -0.004681 0
-0.020448 -0.004742 0
-0.017544 -0.004691 0
-0.014694 -0.004527 0
-0.011964 -0.004254 0
-0.009415 -0.003879 0
-0.007104 -0.003415 0
-0.005078 -0.002877 0
-0.003373 -0.002287 0
-0.002015 -0.001670 0
-0.001010 -0.001060 0
-0.000346 -0.000498 0
0.000012 -0.000034 0
0.000122 0.000265 0
0.000076 0.000312 0
0.000000 0.000000 0
0.000000 -0.000001 0
-0.000154 0.000268 0
-0.000676 0.000965 0
-0.001600 0.001863 0
-0.002935 0.002816 0
-0.004664 0.003733 0
-0.006754 0.004561 0
-0.009162 0.005273 0
-0.011838 0.005858 0
-0.014729 0.006314 0
-0.017783 0.006647 0
-0.020948 0.006862 0
-0.024175 0.006966 0
-0.027416 0.006966 0
-0.030625 0.006867 0
-0.033757 0.006671 0
-0.036769 0.006382 0
-0.039619 0.006001 0
-0.042264 0.005529 0
-0.044665 0.004968 0
-0.046781 0.004319 0
-0.048576 0.003587 0
-0.050013 0.002777 0
-0.051062 0.001898 0
-0.051694 0.000958 0
-0.051889 -0.000026 0
-0.051631 -0.001041 0
-0.050913 -0.002066 0
-0.049736 -0.003081 0
-0.048110 -0.004063 0
-0.046058 -0.004986 0
-0.043609 -0.005828 0
-0.040805 -0.006563 0
-0.037696 -0.007169 0
-0.034344 -0.007626 0
-0.030816 -0.007917 0
-0.027185 -0.008031 0
-0.023529 -0.007959 0
-0.019928 -0.007703 0
-0.016460 -0.007266 0
-0.013201 -0.006662 0
-0.010219 -0.005910 0
-0.007573 -0.005037 0
-0.005308 -0.004078 0
-0.003455 -0.003075 0
-0.002025 -0.002080 0
-0.001010 -0.001155 0
-0.000374 -0.000377 0
-0.000059 0.000158 0
0.000025 0.000334 0
0.000000 0.000000 0
0.000000 -0.000000 0
-0.000254 0.000691 0
-0.001018 0.001834 0
-0.002290 0.003183 0
-0.004050 0.004573 0
-0.006264 0.005895 0
-0.008887 0.007086 0
-0.011865 0.008110 0
-0.015141 0.008952 0
-0.018656 0.009609 0
-0.022349 0.010087 0
-0.026162 0.010392 0
-0.030038 0.010534 0
-0.033922 0.010520 0
-0.037760 0.010358 0
-0.041500 0.010052 0
-0.045092 0.009605 0
-0.048486 0.009020 0
-0.051633 0.008300 0
-0.054485 0.007446 0
-0.056998 0.006463 0
-0.059126 0.005358 0
-0.060830 0.004138 0
-0.062074 0.002817 0
-0.062826 0.001410 0
-0.063062 -0.000062 0
-0.062764 -0.001576 0
-0.061926 -0.003103 0
-0.060547 -0.004613 0
-0.058642 -0.006073 0
-0.056233 -0.007446 0
-0.053356 -0.008699 0
-0.050058 -0.009795 0
-0.046397 -0.010703 0
-0.042440 -0.011393 0
-0.038266 -0.011841 0
-0.033958 -0.012029 0
-0.029605 -0.011948 0
-0.025299 -0.011596 0
-0.021131 -0.010981 0
-0.017187 -0.010120 0
-0.013547 -0.009044 0
-0.010281 -0.007788 0
-0.007444 -0.006405 0
-0.005075 -0.004953 0
-0.003190 -0.003505 0
-0.001786 -0.002149 0
-0.000834 -0.000985 0
-0.000278 -0.000135 0
-0.000036 0.000253 0
0.000000 0.000000 0
0.000000 -0.000000 0
-0.000352 0.001287 0
-0.001362 0.003002 0
-0.002986 0.004895 0
-0.005177 0.006789 0
-0.007879 0.008569 0
-0.011033 0.010162 0
-0.014575 0.011528 0
-0.018438 0.012649 0
-0.022555 0.013522 0
-0.026860 0.014153 0
-0.031289 0.014551 0
-0.035778 0.014726 0
-0.040266 0.014688 0
-0.044694 0.014445 0
-0.049003 0.014004 0
-0.053136 0.013368 0
-0.057039 0.012542 0
-0.060655 0.011529 0
-0.063933 0.010333 0
-0.066819 0.008960 0
-0.069267 0.007420 0
-0.071231 0.005725 0
-0.072671 0.003893 0
-0.073551 0.001946 0
-0.073845 -0.000088 0
-0.073534 -0.002177 0
-0.072607 -0.004283 0
-0.071068 -0.006365 0
-0.068927 -0.008377 0
-0.066212 -0.010272 0
-0.062959 -0.012003 0
-0.059221 -0.013523 0
-0.055059 -0.014787 0
-0.050548 -0.015757 0
-0.045774 -0.016400 0
-0.040829 -0.016692 0
-0.035813 -0.016618 0
-0.030827 -0.016177 0
-0.025974 -0.015378 0
-0.021353 -0.014245 0
-0.017054 -0.012815 0
-0.013157 -0.011140 0
-0.009730 -0.009285 0
-0.006819 -0.007330 0
-0.004451 -0.005368 0
-0.002629 -0.003511 0
-0.001333 -0.001886 0
-0.000514 -0.000639 0
-0.000101 0.000057 0
0.000000 0.000000 0
0.000000 0.000000 0
-0.000446 0.002053 0
-0.001697 0.004468 0
-0.003670 0.006998 0
-0.006288 0.009465 0
-0.009476 0.011751 0
-0.013155 0.013782 0
-0.017250 0.015515 0
-0.021686 0.016932 0
-0.026388 0.018032 0
-0.031283 0.018820 0
-0.036301 0.019309 0
-0.041375 0.019510 0
-0.046437 0.019436 0
-0.051424 0.019094 0
-0.056272 0.018494 0
-0.060920 0.017641 0
-0.065307 0.016539 0
-0.069373 0.015194 0
-0.073060 0.013610 0
-0.076312 0.011798 0
-0.079077 0.009769 0
-0.081305 0.007541 0
-0.082952 0.005137 0
-0.083980 0.002585 0
-0.084358 -0.000079 0
-0.084065 -0.002813 0
-0.083089 -0.005569 0
-0.081430 -0.008293 0
-0.079100 -0.010928 0
-0.076126 -0.013414 0
-0.072545 -0.015691 0
-0.068412 -0.017696 0
-0.063792 -0.019376 0
-0.058766 -0.020678 0
-0.053424 -0.021560 0
-0.047868 -0.021990 0
-0.042206 -0.021950 0
-0.036549 -0.021434 0
-0.031012 -0.020455 0
-0.025705 -0.019041 0
-0.020731 -0.017239 0
-0.016184 -0.015112 0
-0.012141 -0.012743 0
-0.008660 -0.010232 0
-0.005781 -0.007695 0
-0.003516 -0.005267 0
-0.001854 -0.003100 0
-0.000758 -0.001367 0
-0.000166 -0.000261 0
0.000000 0.000000 0
0.000000 0.000000 0
-0.000537 0.002984 0
-0.002019 0.006225 0
-0.004332 0.009486 0
-0.007369 0.012594 0
-0.011031 0.015436 0
-0.015225 0.017937 0
-0.019862 0.020059 0
-0.024855 0.021786 0
-0.030122 0.023119 0
-0.035587 0.024066 0
-0.041172 0.024642 0
-0.046807 0.024861 0
-0.052420 0.024737 0
-0.057943 0.024280 0
-0.063309 0.023500 0
-0.068452 0.022403 0
-0.073308 0.020995 0
-0.077813 0.019282 0
-0.081905 0.017273 0
-0.085524 0.014977 0
-0.088613 0.012413 0
-0.091120 0.009600 0
-0.092995 0.006568 0
-0.094198 0.003352 0
-0.094694 -0.000003 0
-0.094458 -0.003446 0
-0.093475 -0.006918 0
-0.091743 -0.010353 0
-0.089273 -0.013681 0
-0.086086 -0.016827 0
-0.082224 -0.019717 0
-0.077738 -0.022276 0
-0.072698 -0.024433 0
-0.067187 -0.026125 0
-0.061301 -0.027298 0
-0.055148 -0.027910 0
-0.048845 -0.027937 0
-0.042514 -0.027371 0
-0.036281 -0.026222 0
-0.030269 -0.024526 0
-0.024595 -0.022336 0
-0.019367 -0.019731 0
-0.014676 -0.016808 0
-0.010594 -0.013689 0
-0.007174 -0.010512 0
-0.004440 -0.007438 0
-0.002392 -0.004644 0
-0.001006 -0.002327 0
-0.000231 -0.000701 0
0.000000 0.000000 0
0.000000 0.000000 0
-0.000623 0.004073 0
-0.002328 0.008263 0
-0.004967 0.012347 0
-0.008409 0.016164 0
-0.012532 0.019608 0
-0.017225 0.022612 0
-0.022386 0.025144 0
-0.027918 0.027193 0
-0.033733 0.028764 0
-0.039747 0.029870 0
-0.045880 0.030529 0
-0.052054 0.030758 0
-0.058198 0.030571 0
-0.064239 0.029984 0
-0.070107 0.029004 0
-0.075734 0.027640 0
-0.081051 0.025900 0
-0.085992 0.023791 0
-0.090491 0.021321 0
-0.094486 0.018507 0
-0.097915 0.015365 0
-0.100722 0.011923 0
-0.102855 0.008215 0
-0.104268 0.004283 0
-0.104922 0.000181 0
-0.104789 -0.004031 0
-0.103849 -0.008283 0
-0.102095 -0.012496 0
-0.099534 -0.016586 0
-0.096186 -0.020464 0
-0.092088 -0.024039 0
-0.087291 -0.027222 0
-0.081866 -0.029927 0
-0.075897 -0.032075 0
-0.069485 -0.033599 0
-0.062743 -0.034446 0
-0.055797 -0.034584 0
-0.048780 -0.033998 0
-0.041830 -0.032700 0
-0.035085 -0.030727 0
-0.028677 -0.028141 0
-0.022730 -0.025032 0
-0.017351 -0.021516 0
-0.012631 -0.017734 0
-0.008634 -0.013850 0
-0.005403 -0.010048 0
-0.002949 -0.006534 0
-0.001260 -0.003528 0
-0.000297 -0.001267 0
0.000000 0.000000 0
0.000000 0.000000 0
-0.000704 0.005312 0
-0.002620 0.010569 0
-0.005572 0.015567 0
-0.009401 0.020159 0
-0.013966 0.024252 0
-0.019139 0.027790 0
-0.024804 0.030752 0
-0.030856 0.033134 0
-0.037198 0.034948 0
-0.043741 0.036213 0
-0.050400 0.036950 0
-0.057096 0.037180 0
-0.063753 0.036922 0
-0.070297 0.036189 0
-0.076655 0.034995 0
-0.082757 0.033347 0
-0.088532 0.031253 0
-0.093911 0.028722 0
-0.098827 0.025767 0
-0.103212 0.022401 0
-0.107003 0.018649 0
-0.110139 0.014540 0
-0.112565 0.010113 0
-0.114229 0.005419 0
-0.115089 0.000518 0
-0.115110 -0.004520 0
-0.114266 -0.009612 0
-0.112546 -0.014668 0
-0.109950 -0.019590 0
-0.106494 -0.024274 0
-0.102210 -0.028612 0
-0.097147 -0.032497 0
-0.091373 -0.035827 0
-0.084973 -0.038506 0
-0.078051 -0.040452 0
-0.070726 -0.041598 0
-0.063131 -0.041900 0
-0.055411 -0.041337 0
-0.047718 -0.039918 0
-0.040204 -0.037679 0
-0.033020 -0.034692 0
-0.026308 -0.031057 0
-0.020196 -0.026908 0
-0.014792 -0.022406 0
-0.010179 -0.017740 0
-0.006416 -0.013123 0
-0.003531 -0.008787 0
-0.001522 -0.004979 0
-0.000363 -0.001961 0
0.000000 0.000000 0
0.000000 -0.000000 0
-0.000780 0.006693 0
-0.002896 0.013131 0
-0.006142 0.019128 0
-0.010339 0.024559 0
-0.015324 0.029346 0
-0.020954 0.033450 0
-0.027101 0.036861 0
-0.033649 0.039587 0
-0.040495 0.041649 0
-0.047545 0.043072 0
-0.054710 0.043885 0
-0.061908 0.044111 0
-0.069061 0.043772 0
-0.076094 0.042886 0
-0.082932 0.041464 0
-0.089504 0.039517 0
-0.095737 0.037055 0
-0.101560 0.034085 0
-0.106903 0.030622 0
-0.111697 0.026683 0
-0.115876 0.022293 0
-0.119375 0.017485 0
-0.122133 0.012305 0
-0.124095 0.006807 0
-0.125212 0.001061 0
-0.125443 -0.004855 0
-0.124756 -0.010846 0
-0.123131 -0.016812 0
-0.120562 -0.022637 0
-0.117057 -0.028204 0
-0.112641 -0.033386 0
-0.107360 -0.038059 0
-0.101278 -0.042100 0
-0.094477 -0.045396 0
-0.087064 -0.047846 0
-0.079162 -0.049366 0
-0.070912 -0.049898 0
-0.062471 -0.049412 0
-0.054003 -0.047908 0
-0.045681 -0.045424 0
-0.037674 -0.042036 0
-0.030146 -0.037856 0
-0.023247 -0.033033 0
-0.017107 -0.027751 0
-0.011831 -0.022225 0
-0.007496 -0.016697 0
-0.004148 -0.011427 0
-0.001799 -0.006696 0
-0.000432 -0.002789 0
0.000000 -0.000000 0
0.000000 -0.000000 0
-0.000852 0.008207 0
-0.003153 0.015932 0
-0.006676 0.023011 0
-0.011218 0.029341 0
-0.016599 0.034867 0
-0.022660 0.039567 0
-0.029261 0.043446 0
-0.036280 0.046528 0
-0.043604 0.048844 0
-0.051136 0.050427 0
-0.058785 0.051313 0
-0.066465 0.051532 0
-0.074097 0.051108 0
-0.081604 0.050060 0
-0.088912 0.048404 0
-0.095948 0.046151 0
-0.102639 0.043309 0
-0.108912 0.039889 0
-0.114696 0.035904 0
-0.119921 0.031375 0
-0.124515 0.026327 0
-0.128411 0.020797 0
-0.131544 0.014834 0
-0.133854 0.008498 0
-0.135283 0.001866 0
-0.135785 -0.004976 0
-0.135318 -0.011924 0
-0.133855 -0.018862 0
-0.131380 -0.025664 0
-0.127891 -0.032194 0
-0.123407 -0.038308 0
-0.117963 -0.043861 0
-0.111619 -0.048710 0
-0.104454 -0.052720 0
-0.096574 -0.055767 0
-0.088107 -0.057750 0
-0.079199 -0.058591 0
-0.070019 -0.058246 0
-0.060747 -0.056707 0
-0.051575 -0.054008 0
-0.042694 -0.050226 0
-0.034292 -0.045484 0
-0.026546 -0.039947 0
-0.019610 -0.033822 0
-0.013616 -0.027351 0
-0.008662 -0.020806 0
-0.004812 -0.014484 0
-0.002096 -0.008695 0
-0.000506 -0.003760 0
0.000000 -0.000000 0
0.000000 -0.000000 0
-0.000917 0.009846 0
-0.003391 0.018956 0
-0.007170 0.027194 0
-0.012032 0.034481 0
-0.017781 0.040787 0
-0.024244 0.046112 0
-0.031270 0.050480 0
-0.038729 0.053930 0
-0.046504 0.056506 0
-0.054491 0.058253 0
-0.062597 0.059213 0
-0.070736 0.059423 0
-0.078827 0.058912 0
-0.086793 0.057701 0
-0.094560 0.055808 0
-0.102053 0.053244 0
-0.109201 0.050019 0
-0.115930 0.046143 0
-0.122168 0.041631 0
-0.127841 0.036501 0
-0.132878 0.030783 0
-0.137207 0.024515 0
-0.140758 0.017747 0
-0.143465 0.010546 0
-0.145264 0.002992 0
-0.146100 -0.004819 0
-0.145923 -0.012776 0
-0.144693 -0.020750 0
-0.142384 -0.028602 0
-0.138985 -0.036177 0
-0.134501 -0.043314 0
-0.128959 -0.049847 0
-0.122409 -0.055609 0
-0.114927 -0.060441 0
-0.106615 -0.064194 0
-0.097600 -0.066742 0
-0.088039 -0.067986 0
-0.078108 -0.067863 0
-0.068005 -0.066352 0
-0.057941 -0.063478 0
-0.048133 -0.059319 0
-0.038796 -0.054004 0
-0.030137 -0.047715 0
-0.022340 -0.040681 0
-0.015564 -0.033174 0
-0.009934 -0.025500 0
-0.005538 -0.017993 0
-0.002421 -0.011002 0
-0.000587 -0.004886 0
0.000000 -0.000000 0
0.000000 0.000000 0
-0.000977 0.011598 0
-0.003608 0.022185 0
-0.007621 0.031652 0
-0.012776 0.039952 0
-0.018862 0.047078 0
-0.025694 0.053056 0
-0.033113 0.057932 0
-0.040979 0.061762 0
-0.049172 0.064606 0
-0.057584 0.066521 0
-0.066119 0.067558 0
-0.074690 0.067762 0
-0.083217 0.067165 0
-0.091622 0.065793 0
-0.099832 0.063664 0
-0.107773 0.060792 0
-0.115373 0.057185 0
-0.122560 0.052855 0
-0.129260 0.047816 0
-0.135399 0.042085 0
-0.140903 0.035692 0
-0.145698 0.028677 0
-0.149708 0.021092 0
-0.152861 0.013005 0
-0.155088 0.004501 0
-0.156322 -0.004318 0
-0.156504 -0.013331 0
-0.155584 -0.022401 0
-0.153520 -0.031373 0
-0.150290 -0.040078 0
-0.145885 -0.048334 0
-0.140320 -0.055952 0
-0.133633 -0.062742 0
-0.125892 -0.068514 0
-0.117192 -0.073094 0
-0.107663 -0.076326 0
-0.097461 -0.078084 0
-0.086777 -0.078280 0
-0.075821 -0.076874 0
-0.064828 -0.073880 0
-0.054042 -0.069371 0
-0.043708 -0.063480 0
-0.034065 -0.056404 0
-0.025333 -0.048395 0
-0.017705 -0.039756 0
-0.011336 -0.030832 0
-0.006339 -0.021997 0
-0.002779 -0.013646 0
-0.000676 -0.006181 0
0.000000 -0.000000 0
0.000000 0.000000 0
-0.001031 0.013454 0
-0.003802 0.025599 0
-0.008025 0.036362 0
-0.013443 0.045722 0
-0.019833 0.053705 0
-0.026999 0.060363 0
-0.034773 0.065766 0
-0.043011 0.069989 0
-0.051585 0.073110 0
-0.060387 0.075200 0
-0.069318 0.076320 0
-0.078292 0.076521 0
-0.087227 0.075843 0
-0.096047 0.074316 0
-0.104679 0.071959 0
-0.113053 0.068785 0
-0.121096 0.064806 0
-0.128737 0.060030 0
-0.135903 0.054470 0
-0.142519 0.048144 0
-0.148509 0.041081 0
-0.153796 0.033319 0
-0.158302 0.024911 0
-0.161947 0.015926 0
-0.164655 0.006453 0
-0.166351 -0.003403 0
-0.166964 -0.013514 0
-0.166430 -0.023734 0
-0.164695 -0.033895 0
-0.161720 -0.043812 0
-0.157482 -0.053284 0
-0.151980 -0.062099 0
-0.145238 -0.070037 0
-0.137310 -0.076881 0
-0.128286 -0.082423 0
-0.118287 -0.086473 0
-0.107476 -0.088872 0
-0.096047 -0.089503 0
-0.084230 -0.088300 0
-0.072278 -0.085258 0
-0.060465 -0.080439 0
-0.049071 -0.073981 0
-0.038373 -0.066089 0
-0.028629 -0.057040 0
-0.020071 -0.047171 0
-0.012890 -0.036866 0
-0.007229 -0.026549 0
-0.003179 -0.016664 0
-0.000776 -0.007665 0
0.000000 -0.000000 0
0.000000 0.000000 0
-0.001077 0.015400 0
-0.003971 0.029179 0
-0.008378 0.041293 0
-0.014027 0.051760 0
-0.020685 0.060633 0
-0.028146 0.067997 0
-0.036236 0.073944 0
-0.044804 0.078574 0
-0.053721 0.081982 0
-0.062873 0.084254 0
-0.072163 0.085463 0
-0.081502 0.085670 0
-0.090812 0.084920 0
-0.100017 0.083246 0
-0.109046 0.080671 0
-0.117830 0.077209 0
-0.126299 0.072870 0
-0.134383 0.067662 0
-0.142009 0.061597 0
-0.149105 0.054691 0
-0.155592 0.046970 0
-0.161391 0.038470 0
-0.166421 0.029243 0
-0.170598 0.019359 0
-0.173837 0.008905 0
-0.176053 -0.002009 0
-0.177165 -0.013252 0
-0.177096 -0.024669 0
-0.175777 -0.036082 0
-0.173150 -0.047290 0
-0.169175 -0.058074 0
-0.163834 -0.068197 0
-0.157131 -0.077411 0
-0.149108 -0.085466 0
-0.139838 -0.092117 0
-0.129437 -0.097136 0
-0.118063 -0.100324 0
-0.105918 -0.101526 0
-0.093244 -0.100643 0
-0.080316 -0.097645 0
-0.067437 -0.092577 0
-0.054926 -0.085572 0
-0.043099 -0.076846 0
-0.032262 -0.066697 0
-0.022690 -0.055496 0
-0.014617 -0.043674 0
-0.008223 -0.031708 0
-0.003628 -0.020099 0
-0.000890 -0.009360 0
0.000000 -0.000000 0
0.000000 0.000000 0
-0.001117 0.017425 0
-0.004114 0.032900 0
-0.008677 0.046417 0
-0.014523 0.058029 0
-0.021410 0.067824 0
-0.029125 0.075915 0
-0.037487 0.082424 0
-0.046341 0.087473 0
-0.055555 0.091179 0
-0.065013 0.093642 0
-0.074618 0.094949 0
-0.084282 0.095170 0
-0.093927 0.094358 0
-0.103479 0.092550 0
-0.112871 0.089772 0
-0.122034 0.086038 0
-0.130903 0.081359 0
-0.139409 0.075740 0
-0.147482 0.069192 0
-0.155049 0.061727 0
-0.162033 0.053368 0
-0.168354 0.044149 0
-0.173927 0.034118 0
-0.178664 0.023342 0
-0.182473 0.011908 0
-0.185262 -0.000075 0
-0.186937 -0.012472 0
-0.187409 -0.025123 0
-0.186591 -0.037841 0
-0.184409 -0.050413 0
-0.180802 -0.062601 0
-0.175730 -0.074143 0
-0.169178 -0.084763 0
-0.161166 -0.094175 0
-0.151751 -0.102094 0
-0.141035 -0.108247 0
-0.129170 -0.112391 0
-0.116359 -0.114323 0
-0.102853 -0.113903 0
-0.088948 -0.111064 0
-0.074978 -0.105829 0
-0.061299 -0.098319 0
-0.048276 -0.088752 0
-0.036264 -0.077449 0
-0.025591 -0.064816 0
-0.016540 -0.051334 0
-0.009335 -0.037538 0
-0.004133 -0.023998 0
-0.001018 -0.011293 0
0.000000 -0.000000 0
0.000000 0.000000 0
-0.001148 0.019514 0
-0.004229 0.036738 0
-0.008918 0.051702 0
-0.014925 0.064493 0
-0.022000 0.075235 0
-0.029924 0.084074 0
-0.038511 0.091160 0
-0.047603 0.096641 0
-0.057065 0.100654 0
-0.066781 0.103317 0
-0.076652 0.104732 0
-0.086592 0.104978 0
-0.096525 0.104116 0
-0.106379 0.102190 0
-0.116089 0.099226 0