# vtk DataFile Version 2.0
generated by CFD-lab course output (written by Tobias Neckel) 
ASCII

DATASET STRUCTURED_GRID
DIMENSIONS  51 51 1 
POINTS 2601 float

0.000000 0.000000 0
0.020000 0.000000 0
0.040000 0.000000 0
0.060000 0.000000 0
0.080000 0.000000 0
0.100000 0.000000 0
0.120000 0.000000 0
0.140000 0.000000 0
0.160000 0.000000 0
0.180000 0.000000 0
0.200000 0.000000 0
0.220000 0.000000 0
0.240000 0.000000 0
0.260000 0.000000 0
0.280000 0.000000 0
0.300000 0.000000 0
0.320000 0.000000 0
0.340000 0.000000 0
0.360000 0.000000 0
0.380000 0.000000 0
0.400000 0.000000 0
0.420000 0.000000 0
0.440000 0.000000 0
0.460000 0.000000 0
0.480000 0.000000 0
0.500000 0.000000 0
0.520000 0.000000 0
0.540000 0.000000 0
0.560000 0.000000 0
0.580000 0.000000 0
0.600000 0.000000 0
0.620000 0.000000 0
0.640000 0.000000 0
0.660000 0.000000 0
0.680000 0.000000 0
0.700000 0.000000 0
0.720000 0.000000 0
0.740000 0.000000 0
0.760000 0.000000 0
0.780000 0.000000 0
0.800000 0.000000 0
0.820000 0.000000 0
0.840000 0.000000 0
0.860000 0.000000 0
0.880000 0.000000 0
0.900000 0.000000 0
0.920000 0.000000 0
0.940000 0.000000 0
0.960000 0.000000 0
0.980000 0.000000 0
1.000000 0.000000 0
0.000000 0.020000 0
0.020000 0.020000 0
0.040000 0.020000 0
0.060000 0.020000 0
0.080000 0.020000 0
0.100000 0.020000 0
0.120000 0.020000 0
0.140000 0.020000 0
0.160000 0.020000 0
0.180000 0.020000 0
0.200000 0.020000 0
0.220000 0.020000 0
0.240000 0.020000 0
0.260000 0.020000 0
0.280000 0.020000 0
0.300000 0.020000 0
0.320000 0.020000 0
0.340000 0.020000 0
0.360000 0.020000 0
0.380000 0.020000 0
0.400000 0.020000 0
0.420000 0.020000 0
0.440000 0.020000 0
0.460000 0.020000 0
0.480000 0.020000 0
0.500000 0.020000 0
0.520000 0.020000 0
0.540000 0.020000 0
0.560000 0.020000 0
0.580000 0.020000 0
0.600000 0.020000 0
0.620000 0.020000 0
0.640000 0.020000 0
0.660000 0.020000 0
0.680000 0.020000 0
0.700000 0.020000 0
0.720000 0.020000 0
0.740000 0.020000 0
0.760000 0.020000 0
0.780000 0.020000 0
0.800000 0.020000 0
0.820000 0.020000 0
0.840000 0.020000 0
0.860000 0.020000 0
0.880000 0.020000 0
0.900000 0.020000 0
0.920000 0.020000 0
0.940000 0.020000 0
0.960000 0.020000 0
0.980000 0.020000 0
1.000000 0.020000 0
0.000000 0.040000 0
0.020000 0.040000 0
0.040000 0.040000 0
0.060000 0.040000 0
0.080000 0.040000 0
0.100000 0.040000 0
0.120000 0.040000 0
0.140000 0.040000 0
0.160000 0.040000 0
0.180000 0.040000 0
0.200000 0.040000 0
0.220000 0.040000 0
0.240000 0.040000 0
0.260000 0.040000 0
0.280000 0.040000 0
0.300000 0.040000 0
0.320000 0.040000 0
0.340000 0.040000 0
0.360000 0.040000 0
0.380000 0.040000 0
0.400000 0.040000 0
0.420000 0.040000 0
0.440000 0.040000 0
0.460000 0.040000 0
0.480000 0.040000 0
0.500000 0.040000 0
0.520000 0.040000 0
0.540000 0.040000 0
0.560000 0.040000 0
0.580000 0.040000 0
0.600000 0.040000 0
0.620000 0.040000 0
0.640000 0.040000 0
0.660000 0.040000 0
0.680000 0.040000 0
0.700000 0.040000 0
0.720000 0.040000 0
0.740000 0.040000 0
0.760000 0.040000 0
0.780000 0.040000 0
0.800000 0.040000 0
0.820000 0.040000 0
0.840000 0.040000 0
0.860000 0.040000 0
0.880000 0.040000 0
0.900000 0.040000 0
0.920000 0.040000 0
0.940000 0.040000 0
0.960000 0.040000 0
0.980000 0.040000 0
1.000000 0.040000 0
0.000000 0.060000 0
0.020000 0.060000 0
0.040000 0.060000 0
0.060000 0.060000 0
0.080000 0.060000 0
0.100000 0.060000 0
0.120000 0.060000 0
0.140000 0.060000 0
0.160000 0.060000 0
0.180000 0.060000 0
0.200000 0.060000 0
0.220000 0.060000 0
0.240000 0.060000 0
0.260000 0.060000 0
0.280000 0.060000 0
0.300000 0.060000 0
0.320000 0.060000 0
0.340000 0.060000 0
0.360000 0.060000 0
0.380000 0.060000 0
0.400000 0.060000 0
0.420000 0.060000 0
0.440000 0.060000 0
0.460000 0.060000 0
0.480000 0.060000 0
0.500000 0.060000 0
0.520000 0.060000 0
0.540000 0.060000 0
0.560000 0.060000 0
0.580000 0.060000 0
0.600000 0.060000 0
0.620000 0.060000 0
0.640000 0.060000 0
0.660000 0.060000 0
0.680000 0.060000 0
0.700000 0.060000 0
0.720000 0.060000 0
0.740000 0.060000 0
0.760000 0.060000 0
0.780000 0.060000 0
0.800000 0.060000 0
0.820000 0.060000 0
0.840000 0.060000 0
0.860000 0.060000 0
0.880000 0.060000 0
0.900000 0.060000 0
0.920000 0.060000 0
0.940000 0.060000 0
0.960000 0.060000 0
0.980000 0.060000 0
1.000000 0.060000 0
0.000000 0.080000 0
0.020000 0.080000 0
0.040000 0.080000 0
0.060000 0.080000 0
0.080000 0.080000 0
0.100000 0.080000 0
0.120000 0.080000 0
0.140000 0.080000 0
0.160000 0.080000 0
0.180000 0.080000 0
0.200000 0.080000 0
0.220000 0.080000 0
0.240000 0.080000 0
0.260000 0.080000 0
0.280000 0.080000 0
0.300000 0.080000 0
0.320000 0.080000 0
0.340000 0.080000 0
0.360000 0.080000 0
0.380000 0.080000 0
0.400000 0.080000 0
0.420000 0.080000 0
0.440000 0.080000 0
0.460000 0.080000 0
0.480000 0.080000 0
0.500000 0.080000 0
0.520000 0.080000 0
0.540000 0.080000 0
0.560000 0.080000 0
0.580000 0.080000 0
0.600000 0.080000 0
0.620000 0.080000 0
0.640000 0.080000 0
0.660000 0.080000 0
0.680000 0.080000 0
0.700000 0.080000 0
0.720000 0.080000 0
0.740000 0.080000 0
0.760000 0.080000 0
0.780000 0.080000 0
0.800000 0.080000 0
0.820000 0.080000 0
0.840000 0.080000 0
0.860000 0.080000 0
0.880000 0.080000 0
0.900000 0.080000 0
0.920000 0.080000 0
0.940000 0.080000 0
0.960000 0.080000 0
0.980000 0.080000 0
1.000000 0.080000 0
0.000000 0.100000 0
0.020000 0.100000 0
0.040000 0.100000 0
0.060000 0.100000 0
0.080000 0.100000 0
0.100000 0.100000 0
0.120000 0.100000 0
0.140000 0.100000 0
0.160000 0.100000 0
0.180000 0.100000 0
0.200000 0.100000 0
0.220000 0.100000 0
0.240000 0.100000 0
0.260000 0.100000 0
0.280000 0.100000 0
0.300000 0.100000 0
0.320000 0.100000 0
0.340000 0.100000 0
0.360000 0.100000 0
0.380000 0.100000 0
0.400000 0.100000 0
0.420000 0.100000 0
0.440000 0.100000 0
0.460000 0.100000 0
0.480000 0.100000 0
0.500000 0.100000 0
0.520000 0.100000 0
0.540000 0.100000 0
0.560000 0.100000 0
0.580000 0.100000 0
0.600000 0.100000 0
0.620000 0.100000 0
0.640000 0.100000 0
0.660000 0.100000 0
0.680000 0.100000 0
0.700000 0.100000 0
0.720000 0.100000 0
0.740000 0.100000 0
0.760000 0.100000 0
0.780000 0.100000 0
0.800000 0.100000 0
0.820000 0.100000 0
0.840000 0.100000 0
0.860000 0.100000 0
0.880000 0.100000 0
0.900000 0.100000 0
0.920000 0.100000 0
0.940000 0.100000 0
0.960000 0.100000 0
0.980000 0.100000 0
1.000000 0.100000 0
0.000000 0.120000 0
0.020000 0.120000 0
0.040000 0.120000 0
0.060000 0.120000 0
0.080000 0.120000 0
0.100000 0.120000 0
0.120000 0.120000 0
0.140000 0.120000 0
0.160000 0.120000 0
0.180000 0.120000 0
0.200000 0.120000 0
0.220000 0.120000 0
0.240000 0.120000 0
0.260000 0.120000 0
0.280000 0.120000 0
0.300000 0.120000 0
0.320000 0.120000 0
0.340000 0.120000 0
0.360000 0.120000 0
0.380000 0.120000 0
0.400000 0.120000 0
0.420000 0.120000 0
0.440000 0.120000 0
0.460000 0.120000 0
0.480000 0.120000 0
0.500000 0.120000 0
0.520000 0.120000 0
0.540000 0.120000 0
0.560000 0.120000 0
0.580000 0.120000 0
0.600000 0.120000 0
0.620000 0.120000 0
0.640000 0.120000 0
0.660000 0.120000 0
0.680000 0.120000 0
0.700000 0.120000 0
0.720000 0.120000 0
0.740000 0.120000 0
0.760000 0.120000 0
0.780000 0.120000 0
0.800000 0.120000 0
0.820000 0.120000 0
0.840000 0.120000 0
0.860000 0.120000 0
0.880000 0.120000 0
0.900000 0.120000 0
0.920000 0.120000 0
0.940000 0.120000 0
0.960000 0.120000 0
0.980000 0.120000 0
1.000000 0.120000 0
0.000000 0.140000 0
0.020000 0.140000 0
0.040000 0.140000 0
0.060000 0.140000 0
0.080000 0.140000 0
0.100000 0.140000 0
0.120000 0.140000 0
0.140000 0.140000 0
0.160000 0.140000 0
0.180000 0.140000 0
0.200000 0.140000 0
0.220000 0.140000 0
0.240000 0.140000 0
0.260000 0.140000 0
0.280000 0.140000 0
0.300000 0.140000 0
0.320000 0.140000 0
0.340000 0.140000 0
0.360000 0.140000 0
0.380000 0.140000 0
0.400000 0.140000 0
0.420000 0.140000 0
0.440000 0.140000 0
0.460000 0.140000 0
0.480000 0.140000 0
0.500000 0.140000 0
0.520000 0.140000 0
0.540000 0.140000 0
0.560000 0.140000 0
0.580000 0.140000 0
0.600000 0.140000 0
0.620000 0.140000 0
0.640000 0.140000 0
0.660000 0.140000 0
0.680000 0.140000 0
0.700000 0.140000 0
0.720000 0.140000 0
0.740000 0.140000 0
0.760000 0.140000 0
0.780000 0.140000 0
0.800000 0.140000 0
0.820000 0.140000 0
0.840000 0.140000 0
0.860000 0.140000 0
0.880000 0.140000 0
0.900000 0.140000 0
0.920000 0.140000 0
0.940000 0.140000 0
0.960000 0.140000 0
0.980000 0.140000 0
1.000000 0.140000 0
0.000000 0.160000 0
0.020000 0.160000 0
0.040000 0.160000 0
0.060000 0.160000 0
0.080000 0.160000 0
0.100000 0.160000 0
0.120000 0.160000 0
0.140000 0.160000 0
0.160000 0.160000 0
0.180000 0.160000 0
0.200000 0.160000 0
0.220000 0.160000 0
0.240000 0.160000 0
0.260000 0.160000 0
0.280000 0.160000 0
0.300000 0.160000 0
0.320000 0.160000 0
0.340000 0.160000 0
0.360000 0.160000 0
0.380000 0.160000 0
0.400000 0.160000 0
0.420000 0.160000 0
0.440000 0.160000 0
0.460000 0.160000 0
0.480000 0.160000 0
0.500000 0.160000 0
0.520000 0.160000 0
0.540000 0.160000 0
0.560000 0.160000 0
0.580000 0.160000 0
0.600000 0.160000 0
0.620000 0.160000 0
0.640000 0.160000 0
0.660000 0.160000 0
0.680000 0.160000 0
0.700000 0.160000 0
0.720000 0.160000 0
0.740000 0.160000 0
0.760000 0.160000 0
0.780000 0.160000 0
0.800000 0.160000 0
0.820000 0.160000 0
0.840000 0.160000 0
0.860000 0.160000 0
0.880000 0.160000 0
0.900000 0.160000 0
0.920000 0.160000 0
0.940000 0.160000 0
0.960000 0.160000 0
0.980000 0.160000 0
1.000000 0.160000 0
0.000000 0.180000 0
0.020000 0.180000 0
0.040000 0.180000 0
0.060000 0.180000 0
0.080000 0.180000 0
0.100000 0.180000 0
0.120000 0.180000 0
0.140000 0.180000 0
0.160000 0.180000 0
0.180000 0.180000 0
0.200000 0.180000 0
0.220000 0.180000 0
0.240000 0.180000 0
0.260000 0.180000 0
0.280000 0.180000 0
0.300000 0.180000 0
0.320000 0.180000 0
0.340000 0.180000 0
0.360000 0.180000 0
0.380000 0.180000 0
0.400000 0.180000 0
0.420000 0.180000 0
0.440000 0.180000 0
0.460000 0.180000 0
0.480000 0.180000 0
0.500000 0.180000 0
0.520000 0.180000 0
0.540000 0.180000 0
0.560000 0.180000 0
0.580000 0.180000 0
0.600000 0.180000 0
0.620000 0.180000 0
[...]
POINT_DATA 2601 

VECTORS velocity float
0.000000 0.000000 0
-0.000001 0.000000 0
-0.000000 0.000000 0
0.000000 0.000000 0
0.000000 0.000000 0
0.000000 0.000000 0
0.000000 0.000000 0
0.000000 0.000000 0
-0.000000 0.000000 0
-0.000000 0.000000 0
-0.000000 0.000000 0
-0.000000 0.000000 0
-0.000000 0.000000 0
-0.000000 0.000000 0
-0.000000 0.000000 0
-0.000000 0.000000 0
-0.000000 0.000000 0
-0.000000 0.000000 0
-0.000000 0.000000 0
-0.000000 0.000000 0
-0.000000 0.000000 0
-0.000000 0.000000 0
-0.000000 0.000000 0
-0.000000 0.000000 0
-0.000000 0.000000 0
-0.000000 0.000000 0
-0.000000 0.000000 0
-0.000000 0.000000 0
-0.000000 0.000000 0
-0.000000 0.000000 0
-0.000000 0.000000 0
-0.000000 0.000000 0
-0.000000 0.000000 0
-0.000000 0.000000 0
-0.000000 0.000000 0
-0.000000 0.000000 0
-0.000000 0.000000 0
-0.000000 0.000000 0
-0.000000 0.000000 0
-0.000000 0.000000 0
0.000000 0.000000 0
0.000000 0.000000 0
0.000000 0.000000 0
0.000000 0.000000 0
0.000000 0.000000 0
0.000000 0.000000 0
0.000000 0.000000 0
0.000000 0.000000 0
0.000000 0.000000 0
0.000000 0.000000 0
0.000000 0.000000 0
0.000000 -0.000001 0
0.000058 -0.000059 0
0.000077 -0.000022 0
-0.000018 0.000056 0
-0.000257 0.000143 0
-0.000641 0.000226 0
-0.001160 0.000298 0
-0.001793 0.000357 0
-0.002523 0.000405 0
-0.003328 0.000441 0
-0.004190 0.000467 0
-0.005091 0.000485 0
-0.006016 0.000493 0
-0.006949 0.000495 0
-0.007877 0.000489 0
-0.008788 0.000477 0
-0.009669 0.000459 0
-0.010507 0.000434 0
-0.011291 0.000403 0
-0.012008 0.000365 0
-0.012646 0.000321 0
-0.013192 0.000270 0
-0.013637 0.000213 0
-0.013968 0.000150 0
-0.014176 0.000082 0
-0.014253 0.000010 0
-0.014193 -0.000066 0
-0.013993 -0.000143 0
-0.013650 -0.000219 0
-0.013168 -0.000294 0
-0.012552 -0.000365 0
-0.011812 -0.000430 0
-0.010961 -0.000487 0
-0.010015 -0.000533 0
-0.008995 -0.000568 0
-0.007922 -0.000590 0
-0.006823 -0.000597 0
-0.005723 -0.000589 0
-0.004649 -0.000566 0
-0.003629 -0.000527 0
-0.002688 -0.000475 0
-0.001849 -0.000411 0
-0.001132 -0.000336 0
-0.000553 -0.000254 0
-0.000122 -0.000167 0
0.000157 -0.000081 0
0.000291 -0.000001 0
0.000296 0.000063 0
0.000207 0.000097 0
0.000080 0.000080 0
0.000000 -0.000000 0
0.000000 -0.000000 0
0.000022 -0.000078 0
-0.000077 0.000077 0
-0.000385 0.000335 0
-0.000936 0.000624 0
-0.001734 0.000903 0
-0.002760 0.001152 0
-0.003988 0.001363 0
-0.005384 0.001534 0
-0.006916 0.001667 0
-0.008550 0.001763 0
-0.010255 0.001825 0
-0.012002 0.001858 0
-0.013763 0.001862 0
-0.015513 0.001839 0
-0.017227 0.001791 0
-0.018882 0.001719 0
-0.020453 0.001622 0
-0.021918 0.001500 0
-0.023254 0.001355 0
-0.024439 0.001185 0
-0.025450 0.000991 0
-0.026266 0.000775 0
-0.026869 0.000539 0
-0.027242 0.000285 0
-0.027370 0.000017 0
-0.027244 -0.000261 0
-0.026857 -0.000544 0
-0.026210 -0.000825 0
-0.025307 -0.001098 0
-0.024160 -0.001356 0
-0.022785 -0.001591 0
-0.021208 -0.001797 0
-0.019459 -0.001966 0
-0.017572 -0.002093 0
-0.015590 -0.002172 0
-0.013556 -0.002200 0
-0.011517 -0.002174 0
-0.009522 -0.002094 0
-0.007618 -0.001962 0
-0.005851 -0.001781 0
-0.004261 -0.001556 0
-0.002884 -0.001296 0
-0.001747 -0.001010 0
-0.000868 -0.000710 0
-0.000251 -0.000413 0
0.000114 -0.000139 0
0.000254 0.000083 0
0.000223 0.000216 0
0.000100 0.000207 0
0.000000 -0.000000 0
0.000000 0.000000 0
-0.000057 0.000020 0
-0.000347 0.000387 0
-0.000937 0.000915 0
-0.001854 0.001491 0
-0.003093 0.002048 0
-0.004631 0.002551 0
-0.006434 0.002981 0
-0.008460 0.003333 0
-0.010666 0.003607 0
-0.013008 0.003807 0
-0.015444 0.003936 0
-0.017935 0.004002 0
-0.020441 0.004006 0
-0.022928 0.003954 0
-0.025359 0.003846 0
-0.027702 0.003685 0
-0.029923 0.003471 0
-0.031989 0.003204 0
-0.033868 0.002886 0
-0.035529 0.002516 0
-0.036942 0.002097 0
-0.038079 0.001632 0
-0.038913 0.001126 0
-0.039422 0.000583 0
-0.039588 0.000012 0
-0.039398 -0.000578 0
-0.038845 -0.001176 0
-0.037929 -0.001770 0
-0.036659 -0.002345 0
-0.035050 -0.002887 0
-0.033127 -0.003381 0
-0.030923 -0.003813 0
-0.028480 -0.004169 0
-0.025845 -0.004437 0
-0.023074 -0.004606 0
-0.020226 -0.004669 0
-0.017366 -0.004622 0
-0.014558 -0.004465 0
-0.011865 -0.004199 0
-0.009349 -0.003833 0
-0.007065 -0.003378 0
-0.005061 -0.002850 0
-0.003373 -0.002270 0
-0.002025 -0.001664 0
-0.001025 -0.001062 0
-0.000361 -0.000506 0
-0.000001 -0.000046 0
0.000114 0.000252 0
0.000073 0.000303 0
0.000000 0.000000 0
0.000000 0.000001 0
-0.000151 0.000270 0
-0.000667 0.000957 0
-0.001579 0.001841 0
-0.002895 0.002778 0
-0.004597 0.003679 0
-0.006653 0.004493 0
-0.009022 0.005192 0
-0.011654 0.005766 0
-0.014498 0.006214 0
-0.017502 0.006541 0
-0.020615 0.006752 0
-0.023789 0.006855 0
-0.026977 0.006855 0
-0.030134 0.006757 0
-0.033215 0.006566 0
-0.036180 0.006282 0
-0.038985 0.005909 0
-0.041591 0.005446 0
-0.043957 0.004895 0
-0.046044 0.004259 0
-0.047815 0.003541 0
-0.049237 0.002746 0
-0.050276 0.001882 0
-0.050907 0.000960 0
-0.051109 -0.000007 0
-0.050865 -0.001004 0
-0.050169 -0.002012 0
-0.049021 -0.003011 0
-0.047432 -0.003977 0
-0.045422 -0.004888 0
-0.043020 -0.005718 0
-0.040268 -0.006444 0
-0.037215 -0.007045 0
-0.033920 -0.007499 0
-0.030450 -0.007790 0
-0.026876 -0.007907 0
-0.023275 -0.007843 0
-0.019726 -0.007595 0
-0.016307 -0.007170 0
-0.013090 -0.006581 0
-0.010145 -0.005844 0
-0.007528 -0.004988 0
-0.005287 -0.004045 0
-0.003450 -0.003058 0
-0.002031 -0.002076 0
-0.001019 -0.001163 0
-0.000384 -0.000393 0
-0.000065 0.000141 0
0.000023 0.000322 0
0.000000 0.000000 0
0.000000 0.000000 0
-0.000250 0.000687 0
-0.001004 0.001814 0
-0.002256 0.003141 0
-0.003988 0.004507 0
-0.006165 0.005807 0
-0.008744 0.006977 0
-0.011672 0.007982 0
-0.014894 0.008809 0
-0.018350 0.009455 0
-0.021981 0.009924 0
-0.025730 0.010224 0
-0.029542 0.010363 0
-0.033362 0.010351 0
-0.037138 0.010192 0
-0.040819 0.009892 0
-0.044354 0.009455 0
-0.047696 0.008882 0
-0.050796 0.008175 0
-0.053608 0.007338 0
-0.056086 0.006374 0
-0.058189 0.005290 0
-0.059875 0.004093 0
-0.061109 0.002796 0
-0.061860 0.001415 0
-0.062105 -0.000031 0
-0.061825 -0.001519 0
-0.061013 -0.003021 0
-0.059670 -0.004507 0
-0.057807 -0.005944 0
-0.055449 -0.007299 0
-0.052628 -0.008535 0
-0.049391 -0.009618 0
-0.045794 -0.010517 0
-0.041905 -0.011203 0
-0.037799 -0.011651 0
-0.033558 -0.011844 0
-0.029271 -0.011772 0
-0.025028 -0.011433 0
-0.020917 -0.010835 0
-0.017026 -0.009995 0
-0.013432 -0.008940 0
-0.010204 -0.007709 0
-0.007398 -0.006349 0
-0.005051 -0.004920 0
-0.003182 -0.003493 0
-0.001787 -0.002153 0
-0.000838 -0.001000 0
-0.000282 -0.000155 0
-0.000038 0.000238 0
0.000000 0.000000 0
0.000000 -0.000000 0
-0.000346 0.001274 0
-0.001340 0.002963 0
-0.002937 0.004825 0
-0.005091 0.006687 0
-0.007747 0.008436 0
-0.010847 0.010000 0
-0.014328 0.011342 0
-0.018125 0.012443 0
-0.022172 0.013302 0
-0.026405 0.013922 0
-0.030759 0.014313 0
-0.035173 0.014487 0
-0.039588 0.014451 0
-0.043944 0.014214 0
-0.048184 0.013782 0
-0.052254 0.013160 0
-0.056097 0.012351 0
-0.059661 0.011358 0
-0.062893 0.010185 0
-0.065742 0.008839 0
-0.068161 0.007329 0
-0.070106 0.005666 0
-0.071535 0.003868 0
-0.072416 0.001956 0
-0.072720 -0.000043 0
-0.072430 -0.002096 0
-0.071534 -0.004168 0
-0.070034 -0.006217 0
-0.067942 -0.008199 0
-0.065283 -0.010067 0
-0.062094 -0.011776 0
-0.058424 -0.013278 0
-0.054335 -0.014531 0
-0.049901 -0.015494 0
-0.045204 -0.016137 0
-0.040336 -0.016435 0
-0.035395 -0.016373 0
-0.030482 -0.015949 0
-0.025696 -0.015173 0
-0.021136 -0.014066 0
-0.016892 -0.012666 0
-0.013042 -0.011022 0
-0.009653 -0.009199 0
-0.006772 -0.007274 0
-0.004426 -0.005340 0
-0.002619 -0.003506 0
-0.001331 -0.001898 0
-0.000515 -0.000659 0
-0.000102 0.000040 0
0.000000 0.000000 0
0.000000 -0.000000 0
-0.000439 0.002027 0
-0.001668 0.004404 0
-0.003606 0.006892 0
-0.006179 0.009317 0
-0.009310 0.011563 0
-0.012925 0.013558 0
-0.016949 0.015260 0
-0.021308 0.016653 0
-0.025929 0.017735 0
-0.030741 0.018511 0
-0.035675 0.018992 0
-0.040664 0.019192 0
-0.045643 0.019121 0
-0.050550 0.018789 0
-0.055322 0.018202 0
-0.059899 0.017368 0
-0.064221 0.016289 0
-0.068229 0.014971 0
-0.071867 0.013419 0
-0.075079 0.011643 0
-0.077812 0.009653 0
-0.080020 0.007467 0
-0.081656 0.005107 0
-0.082685 0.002600 0
-0.083075 -0.000017 0
-0.082805 -0.002705 0
-0.081863 -0.005416 0
-0.080248 -0.008098 0
-0.077971 -0.010695 0
-0.075059 -0.013147 0
-0.071547 -0.015394 0
-0.067489 -0.017377 0
-0.062950 -0.019041 0
-0.058007 -0.020334 0
-0.052751 -0.021215 0
-0.047281 -0.021652 0
-0.041703 -0.021626 0
-0.036127 -0.021132 0
-0.030666 -0.020181 0
-0.025430 -0.018800 0
-0.020520 -0.017034 0
-0.016028 -0.014947 0
-0.012031 -0.012619 0
-0.008589 -0.010147 0
-0.005739 -0.007646 0
-0.003494 -0.005248 0
-0.001845 -0.003105 0
-0.000755 -0.001384 0
-0.000166 -0.000277 0
0.000000 0.000000 0
0.000000 -0.000000 0
-0.000528 0.002941 0
-0.001983 0.006130 0
-0.004254 0.009336 0
-0.007237 0.012391 0
-0.010833 0.015182 0
-0.014953 0.017640 0
-0.019507 0.019725 0
-0.024413 0.021423 0
-0.029590 0.022734 0
-0.034962 0.023668 0
-0.040454 0.024237 0
-0.045995 0.024455 0
-0.051517 0.024337 0
-0.056953 0.023893 0
-0.062236 0.023131 0
-0.067302 0.022058 0
-0.072088 0.020680 0
-0.076531 0.019003 0
-0.080570 0.017035 0
-0.084146 0.014785 0
-0.087202 0.012270 0
-0.089687 0.009510 0
-0.091552 0.006533 0
-0.092756 0.003375 0
-0.093265 0.000077 0
-0.093054 -0.003308 0
-0.092107 -0.006725 0
-0.090422 -0.010108 0
-0.088008 -0.013388 0
-0.084888 -0.016492 0
-0.081099 -0.019345 0
-0.076694 -0.021875 0
-0.071740 -0.024012 0
-0.066319 -0.025693 0
-0.060526 -0.026864 0
-0.054466 -0.027484 0
-0.048255 -0.027527 0
-0.042014 -0.026985 0
-0.035866 -0.025870 0
-0.029933 -0.024213 0
-0.024332 -0.022068 0
-0.019168 -0.019511 0
-0.014532 -0.016638 0
-0.010496 -0.013566 0
-0.007111 -0.010435 0
-0.004404 -0.007400 0
-0.002375 -0.004636 0
-0.001000 -0.002338 0
-0.000230 -0.000716 0
0.000000 0.000000 0
0.000000 -0.000000 0
-0.000612 0.004010 0
-0.002285 0.008131 0
-0.004876 0.012145 0
-0.008255 0.015896 0
-0.012303 0.019280 0
-0.016912 0.022232 0
-0.021981 0.024721 0
-0.027417 0.026736 0
-0.033133 0.028283 0
-0.039045 0.029374 0
-0.045075 0.030026 0
-0.051149 0.030256 0
-0.057195 0.030079 0
-0.063142 0.029507 0
-0.068922 0.028552 0
-0.074466 0.027220 0
-0.079709 0.025518 0
-0.084584 0.023453 0
-0.089028 0.021034 0
-0.092977 0.018275 0
-0.096372 0.015194 0
-0.099156 0.011817 0
-0.101278 0.008176 0
-0.102692 0.004313 0
-0.103360 0.000280 0
-0.103253 -0.003863 0
-0.102350 -0.008048 0
-0.100645 -0.012198 0
-0.098142 -0.016230 0
-0.094863 -0.020056 0
-0.090842 -0.023588 0
-0.086131 -0.026736 0
-0.080797 -0.029415 0
-0.074923 -0.031548 0
-0.068610 -0.033068 0
-0.061968 -0.033923 0
-0.055121 -0.034079 0
-0.048202 -0.033521 0
-0.041345 -0.032261 0
-0.034688 -0.030334 0
-0.028361 -0.027800 0
-0.022487 -0.024747 0
-0.017172 -0.021290 0
-0.012505 -0.017567 0
-0.008552 -0.013737 0
-0.005354 -0.009984 0
-0.002924 -0.006509 0
-0.001250 -0.003529 0
-0.000295 -0.001277 0
0.000000 0.000000 0
0.000000 0.000000 0
-0.000691 0.005226 0
-0.002571 0.010395 0
-0.005468 0.015306 0
-0.009227 0.019818 0
-0.013709 0.023839 0
-0.018789 0.027318 0
-0.024354 0.030230 0
-0.030301 0.032574 0
-0.036535 0.034362 0
-0.042968 0.035610 0
-0.049518 0.036341 0
-0.056107 0.036575 0
-0.062660 0.036330 0
-0.069105 0.035619 0
-0.075370 0.034455 0
-0.081385 0.032846 0
-0.087082 0.030798 0
-0.092393 0.028322 0
-0.097250 0.025427 0
-0.101588 0.022129 0
-0.105343 0.018449 0
-0.108455 0.014416 0
-0.110870 0.010070 0
-0.112535 0.005457 0
-0.113408 0.000638 0
-0.113454 -0.004319 0
-0.112649 -0.009333 0
-0.110978 -0.014315 0
-0.108443 -0.019169 0
-0.105057 -0.023792 0
-0.100852 -0.028078 0
-0.095877 -0.031921 0
-0.090197 -0.035220 0
-0.083897 -0.037880 0
-0.077078 -0.039819 0
-0.069859 -0.040972 0
-0.062370 -0.041293 0
-0.054755 -0.040761 0
-0.047162 -0.039384 0
-0.039745 -0.037197 0
-0.032651 -0.034269 0
-0.026020 -0.030700 0
-0.019980 -0.026619 0
-0.014638 -0.022186 0
-0.010076 -0.017586 0
-0.006353 -0.013028 0
-0.003497 -0.008740 0
-0.001509 -0.004967 0
-0.000360 -0.001966 0
0.000000 0.000000 0
0.000000 0.000000 0
-0.000765 0.006581 0
-0.002841 0.012908 0
-0.006027 0.018801 0
-0.010147 0.024137 0
-0.015042 0.028842 0
-0.020572 0.032877 0
-0.026611 0.036233 0
-0.033047 0.038917 0
-0.039778 0.040950 0
-0.046711 0.042357 0
-0.053761 0.043165 0
-0.060847 0.043397 0
-0.067891 0.043076 0
-0.074821 0.042217 0
-0.081562 0.040833 0
-0.088044 0.038933 0
-0.094196 0.036525 0
-0.099948 0.033620 0
-0.105231 0.030229 0
-0.109976 0.026368 0
-0.114118 0.022062 0
-0.117592 0.017343 0
-0.120337 0.012255 0
-0.122300 0.006852 0
-0.123429 0.001200 0
-0.123685 -0.004622 0
-0.123036 -0.010524 0
-0.121460 -0.016404 0
-0.118951 -0.022151 0
-0.115516 -0.027646 0
-0.111182 -0.032768 0
-0.105989 -0.037391 0
-0.100003 -0.041395 0
-0.093305 -0.044667 0
-0.085999 -0.047107 0
-0.078207 -0.048632 0
-0.070069 -0.049183 0
-0.061738 -0.048729 0
-0.053379 -0.047271 0
-0.045161 -0.044845 0
-0.037252 -0.041524 0
-0.029814 -0.037418 0
-0.022995 -0.032673 0
-0.016924 -0.027471 0
-0.011707 -0.022022 0
-0.007419 -0.016563 0
-0.004106 -0.011353 0
-0.001782 -0.006666 0
-0.000428 -0.002786 0
0.000000 -0.000000 0
0.000000 0.000000 0
-0.000835 0.008066 0
-0.003094 0.015656 0
-0.006552 0.022612 0
-0.011011 0.028833 0
-0.016295 0.034264 0
-0.022250 0.038886 0
-0.028737 0.042705 0
-0.035637 0.045741 0
-0.042842 0.048026 0
-0.050252 0.049594 0
-0.057781 0.050477 0
-0.065344 0.050705 0
-0.072864 0.050303 0
-0.080265 0.049290 0
-0.087473 0.047678 0
-0.094417 0.045480 0
-0.101026 0.042703 0
-0.107227 0.039357 0
-0.112949 0.035455 0
-0.118123 0.031016 0
-0.122679 0.026064 0
-0.126549 0.020636 0
-0.129668 0.014778 0
-0.131977 0.008549 0
-0.133418 0.002023 0
-0.133943 -0.004713 0
-0.133513 -0.011559 0
-0.132097 -0.018400 0
-0.129681 -0.025113 0
-0.126262 -0.031561 0
-0.121857 -0.037605 0
-0.116502 -0.043100 0
-0.110255 -0.047904 0
-0.103194 -0.051884 0
-0.095424 -0.054917 0
-0.087069 -0.056902 0
-0.078277 -0.057762 0
-0.069213 -0.057451 0
-0.060056 -0.055961 0
-0.050995 -0.053324 0
-0.042219 -0.049617 0
-0.033915 -0.044957 0
-0.026257 -0.039509 0
-0.019399 -0.033474 0
-0.013471 -0.027091 0
-0.008571 -0.020629 0
-0.004763 -0.014378 0
-0.002075 -0.008645 0
-0.000501 -0.003747 0
0.000000 -0.000000 0
0.000000 0.000000 0
-0.000900 0.009674 0
-0.003328 0.018624 0
-0.007038 0.026718 0
-0.011813 0.033881 0
-0.017460 0.040081 0
-0.023812 0.045319 0
-0.030720 0.049620 0
-0.038056 0.053021 0
-0.045706 0.055565 0
-0.053569 0.057296 0
-0.061552 0.058256 0
-0.069571 0.058480 0
-0.077547 0.057996 0
-0.085405 0.056826 0
-0.093070 0.054985 0
-0.100471 0.052485 0
-0.107535 0.049335 0
-0.114191 0.045544 0
-0.120366 0.041125 0
-0.125989 0.036097 0
-0.130986 0.030488 0
-0.135288 0.024333 0
-0.138824 0.017683 0
-0.141528 0.010601 0
-0.143338 0.003167 0
-0.144195 -0.004527 0
-0.144051 -0.012370 0
-0.142867 -0.020236 0
-0.140615 -0.027986 0
-0.137283 -0.035470 0
-0.132876 -0.042527 0
-0.127422 -0.048993 0
-0.120968 -0.054703 0
-0.113590 -0.059498 0
-0.105387 -0.063232 0
-0.096488 -0.065778 0
-0.087044 -0.067039 0
-0.077233 -0.066950 0
-0.067250 -0.065490 0
-0.057303 -0.062683 0
-0.047607 -0.058604 0
-0.038376 -0.053380 0
-0.029813 -0.047189 0
-0.022101 -0.040257 0
-0.015399 -0.032850 0
-0.009830 -0.025272 0
-0.005480 -0.017849 0
-0.002396 -0.010928 0
-0.000581 -0.004861 0
0.000000 -0.000000 0
0.000000 0.000000 0
-0.000959 0.011394 0
-0.003542 0.021795 0
-0.007483 0.031097 0
-0.012548 0.039255 0
-0.018529 0.046263 0
-0.025247 0.052146 0
-0.032544 0.056949 0
-0.040285 0.060727 0
-0.048351 0.063539 0
-0.056636 0.065439 0
-0.065046 0.066479 0
-0.073497 0.066701 0
-0.081908 0.066137 0
-0.090204 0.064813 0
-0.098312 0.062744 0
-0.106160 0.059945 0
-0.113677 0.056423 0
-0.120791 0.052188 0
-0.127428 0.047253 0
-0.133516 0.041636 0
-0.138981 0.035363 0
-0.143747 0.028474 0
-0.147741 0.021018 0
-0.150890 0.013062 0
-0.153124 0.004690 0
-0.154378 -0.003999 0
-0.154590 -0.012887 0
-0.153712 -0.021837 0
-0.151701 -0.030697 0
-0.148535 -0.039300 0
-0.144204 -0.047466 0
-0.138723 -0.055008 0
-0.132129 -0.061736 0
-0.124490 -0.067465 0
-0.115899 -0.072019 0
-0.106484 -0.075245 0
-0.096403 -0.077016 0
-0.085840 -0.077245 0
-0.075008 -0.075892 0
-0.064137 -0.072967 0
-0.053468 -0.068544 0
-0.043246 -0.062752 0
-0.033706 -0.055784 0
-0.025068 -0.047888 0
-0.017520 -0.039363 0
-0.011218 -0.030547 0
-0.006273 -0.021812 0
-0.002750 -0.013545 0
-0.000669 -0.006143 0
0.000000 -0.000000 0
0.000000 0.000000 0
-0.001012 0.013216 0
-0.003734 0.025149 0
-0.007884 0.035725 0
-0.013210 0.044927 0
-0.019494 0.052780 0
-0.026544 0.059334 0
-0.034196 0.064658 0
-0.042306 0.068827 0
-0.050753 0.071915 0
-0.059427 0.073992 0
-0.068234 0.075118 0
-0.077086 0.075342 0
-0.085906 0.074704 0
-0.094618 0.073230 0
-0.103150 0.070942 0
-0.111432 0.067850 0
-0.119393 0.063965 0
-0.126961 0.059295 0
-0.134065 0.053851 0
-0.140630 0.047650 0
-0.146581 0.040718 0
-0.151839 0.033093 0
-0.156328 0.024826 0
-0.159968 0.015985 0
-0.162681 0.006654 0
-0.164393 -0.003061 0
-0.165033 -0.013036 0
-0.164537 -0.023125 0
-0.162851 -0.033163 0
-0.159935 -0.042968 0
-0.155767 -0.052340 0
-0.150343 -0.061068 0
-0.143690 -0.068936 0
-0.135860 -0.075728 0
-0.126941 -0.081237 0
-0.117056 -0.085275 0
-0.106363 -0.087683 0
-0.095057 -0.088345 0
-0.083365 -0.087193 0
-0.071538 -0.084223 0
-0.059847 -0.079495 0
-0.048570 -0.073141 0
-0.037981 -0.065367 0
-0.028337 -0.056443 0
-0.019866 -0.046700 0
-0.012758 -0.036519 0
-0.007155 -0.026317 0
-0.003147 -0.016532 0
-0.000768 -0.007612 0
0.000000 -0.000000 0
0.000000 0.000000 0
-0.001059 0.015128 0
-0.003904 0.028666 0
-0.008237 0.040573 0
-0.013794 0.050865 0
-0.020345 0.059596 0
-0.027691 0.066848 0
-0.035659 0.072711 0
-0.044100 0.077284 0
-0.052890 0.080659 0
-0.061916 0.082920 0
-0.071082 0.084139 0
-0.080303 0.084373 0
-0.089499 0.083669 0
-0.098598 0.082057 0
-0.107529 0.079558 0
-0.116224 0.076187 0
-0.124612 0.071952 0
-0.132626 0.066861 0
-0.140193 0.060922 0
-0.147239 0.054151 0
-0.153687 0.046573 0
-0.159458 0.038221 0
-0.164470 0.029146 0
-0.168640 0.019416 0
-0.171881 0.009116 0
-0.174111 -0.001647 0
-0.175246 -0.012743 0
-0.175210 -0.024018 0
-0.173934 -0.035298 0
-0.171361 -0.046384 0
-0.167450 -0.057058 0
-0.162181 -0.067085 0
-0.155561 -0.076220 0
-0.147629 -0.084214 0
-0.138460 -0.090823 0
-0.128167 -0.095823 0
-0.116909 -0.099015 0
-0.104885 -0.100244 0
-0.092335 -0.099411 0
-0.079533 -0.096485 0
-0.066780 -0.091511 0
-0.054389 -0.084617 0
-0.042677 -0.076017 0
-0.031946 -0.066003 0
-0.022467 -0.054942 0
-0.014472 -0.043259 0
-0.008141 -0.031423 0
-0.003592 -0.019931 0
-0.000880 -0.009290 0
0.000000 -0.000000 0
0.000000 0.000000 0
-0.001098 0.017119 0
-0.004048 0.032326 0
-0.008537 0.045615 0
-0.014293 0.057036 0
-0.021076 0.066676 0
-0.028677 0.074647 0
-0.036919 0.081068 0
-0.045649 0.086058 0
-0.054738 0.089730 0
-0.064074 0.092184 0
-0.073559 0.093505 0
-0.083107 0.093759 0
-0.092642 0.092999 0
-0.102092 0.091260 0
-0.111389 0.088567 0
-0.120467 0.084933 0
-0.129259 0.080367 0
-0.137698 0.074875 0
-0.145713 0.068463 0
-0.153233 0.061144 0
-0.160180 0.052938 0
-0.166473 0.043877 0
-0.172028 0.034008 0
-0.176757 0.023396 0
-0.180568 0.012125 0
-0.183367 0.000304 0
-0.185062 -0.011936 0
-0.185562 -0.024436 0
-0.184782 -0.037012 0
-0.182646 -0.049452 0
-0.179095 -0.061520 0
-0.174088 -0.072956 0
-0.167611 -0.083488 0
-0.159682 -0.092830 0
-0.150360 -0.100699 0
-0.139746 -0.106825 0
-0.127992 -0.110965 0
-0.115297 -0.112919 0
-0.101913 -0.112545 0
-0.088133 -0.109778 0
-0.074288 -0.104639 0
-0.060732 -0.097244 0
-0.047828 -0.087811 0
-0.035925 -0.076653 0
-0.025350 -0.064173 0
-0.016383 -0.050845 0
-0.009245 -0.037197 0
-0.004093 -0.023792 0
-0.001008 -0.011203 0
0.000000 -0.000000 0
0.000000 0.000000 0
-0.001130 0.019176 0
-0.004165 0.036105 0
-0.008783 0.050819 0
-0.014703 0.063403 0
-0.021676 0.073980 0
-0.029490 0.082691 0
-0.037962 0.089684 0
-0.046935 0.095104 0
-0.056277 0.099084 0
-0.065874 0.101740 0
-0.075630 0.103172 0
-0.085460 0.103457 0
-0.095288 0.102654 0
-0.105045 0.100803 0