# vtk DataFile Version 2.0
generated by CFD-lab course output (written by Tobias Neckel) 
ASCII

DATASET STRUCTURED_GRID
DIMENSIONS  51 51 1 
POINTS 2601 float

0.000000 0.000000 0
0.020000 0.000000 0
0.040000 0.000000 0
0.060000 0.000000 0
0.080000 0.000000 0
0.100000 0.000000 0
0.120000 0.000000 0
0.140000 0.000000 0
0.160000 0.000000 0
0.180000 0.000000 0
0.200000 0.000000 0
0.220000 0.000000 0
0.240000 0.000000 0
0.260000 0.000000 0
0.280000 0.000000 0
0.300000 0.000000 0
0.320000 0.000000 0
0.340000 0.000000 0
0.360000 0.000000 0
0.380000 0.000000 0
0.400000 0.000000 0
0.420000 0.000000 0
0.440000 0.000000 0
0.460000 0.000000 0
0.480000 0.000000 0
0.500000 0.000000 0
0.520000 0.000000 0
0.540000 0.000000 0
0.560000 0.000000 0
0.580000 0.000000 0
0.600000 0.000000 0
0.620000 0.000000 0
0.640000 0.000000 0
0.660000 0.000000 0
0.680000 0.000000 0
0.700000 0.000000 0
0.720000 0.000000 0
0.740000 0.000000 0
0.760000 0.000000 0
0.780000 0.000000 0
0.800000 0.000000 0
0.820000 0.000000 0
0.840000 0.000000 0
0.860000 0.000000 0
0.880000 0.000000 0
0.900000 0.000000 0
0.920000 0.000000 0
0.940000 0.000000 0
0.960000 0.000000 0
0.980000 0.000000 0
1.000000 0.000000 0
0.000000 0.020000 0
0.020000 0.020000 0
0.040000 0.020000 0
0.060000 0.020000 0
0.080000 0.020000 0
0.100000 0.020000 0
0.120000 0.020000 0
0.140000 0.020000 0
0.160000 0.020000 0
0.180000 0.020000 0
0.200000 0.020000 0
0.220000 0.020000 0
0.240000 0.020000 0
0.260000 0.020000 0
0.280000 0.020000 0
0.300000 0.020000 0
0.320000 0.020000 0
0.340000 0.020000 0
0.360000 0.020000 0
0.380000 0.020000 0
0.400000 0.020000 0
0.420000 0.020000 0
0.440000 0.020000 0
0.460000 0.020000 0
0.480000 0.020000 0
0.500000 0.020000 0
0.520000 0.020000 0
0.540000 0.020000 0
0.560000 0.020000 0
0.580000 0.020000 0
0.600000 0.020000 0
0.620000 0.020000 0
0.640000 0.020000 0
0.660000 0.020000 0
0.680000 0.020000 0
0.700000 0.020000 0
0.720000 0.020000 0
0.740000 0.020000 0
0.760000 0.020000 0
0.780000 0.020000 0
0.800000 0.020000 0
0.820000 0.020000 0
0.840000 0.020000 0
0.860000 0.020000 0
0.880000 0.020000 0
0.900000 0.020000 0
0.920000 0.020000 0
0.940000 0.020000 0
0.960000 0.020000 0
0.980000 0.020000 0
1.000000 0.020000 0
0.000000 0.040000 0
0.020000 0.040000 0
0.040000 0.040000 0
0.060000 0.040000 0
0.080000 0.040000 0
0.100000 0.040000 0
0.120000 0.040000 0
0.140000 0.040000 0
0.160000 0.040000 0
0.180000 0.040000 0
0.200000 0.040000 0
0.220000 0.040000 0
0.240000 0.040000 0
0.260000 0.040000 0
0.280000 0.040000 0
0.300000 0.040000 0
0.320000 0.040000 0
0.340000 0.040000 0
0.360000 0.040000 0
0.380000 0.040000 0
0.400000 0.040000 0
0.420000 0.040000 0
0.440000 0.040000 0
0.460000 0.040000 0
0.480000 0.040000 0
0.500000 0.040000 0
0.520000 0.040000 0
0.540000 0.040000 0
0.560000 0.040000 0
0.580000 0.040000 0
0.600000 0.040000 0
0.620000 0.040000 0
0.640000 0.040000 0
0.660000 0.040000 0
0.680000 0.040000 0
0.700000 0.040000 0
0.720000 0.040000 0
0.740000 0.040000 0
0.760000 0.040000 0
0.780000 0.040000 0
0.800000 0.040000 0
0.820000 0.040000 0
0.840000 0.040000 0
0.860000 0.040000 0
0.880000 0.040000 0
0.900000 0.040000 0
0.920000 0.040000 0
0.940000 0.040000 0
0.960000 0.040000 0
0.980000 0.040000 0
1.000000 0.040000 0
0.000000 0.060000 0
0.020000 0.060000 0
0.040000 0.060000 0
0.060000 0.060000 0
0.080000 0.060000 0
0.100000 0.060000 0
0.120000 0.060000 0
0.140000 0.060000 0
0.160000 0.060000 0
0.180000 0.060000 0
0.200000 0.060000 0
0.220000 0.060000 0
0.240000 0.060000 0
0.260000 0.060000 0
0.280000 0.060000 0
0.300000 0.060000 0
0.320000 0.060000 0
0.340000 0.060000 0
0.360000 0.060000 0
0.380000 0.060000 0
0.400000 0.060000 0
0.420000 0.060000 0
0.440000 0.060000 0
0.460000 0.060000 0
0.480000 0.060000 0
0.500000 0.060000 0
0.520000 0.060000 0
0.540000 0.060000 0
0.560000 0.060000 0
0.580000 0.060000 0
0.600000 0.060000 0
0.620000 0.060000 0
0.640000 0.060000 0
0.660000 0.060000 0
0.680000 0.060000 0
0.700000 0.060000 0
0.720000 0.060000 0
0.740000 0.060000 0
0.760000 0.060000 0
0.780000 0.060000 0
0.800000 0.060000 0
0.820000 0.060000 0
0.840000 0.060000 0
0.860000 0.060000 0
0.880000 0.060000 0
0.900000 0.060000 0
0.920000 0.060000 0
0.940000 0.060000 0
0.960000 0.060000 0
0.980000 0.060000 0
1.000000 0.060000 0
0.000000 0.080000 0
0.020000 0.080000 0
0.040000 0.080000 0
0.060000 0.080000 0
0.080000 0.080000 0
0.100000 0.080000 0
0.120000 0.080000 0
0.140000 0.080000 0
0.160000 0.080000 0
0.180000 0.080000 0
0.200000 0.080000 0
0.220000 0.080000 0
0.240000 0.080000 0
0.260000 0.080000 0
0.280000 0.080000 0
0.300000 0.080000 0
0.320000 0.080000 0
0.340000 0.080000 0
0.360000 0.080000 0
0.380000 0.080000 0
0.400000 0.080000 0
0.420000 0.080000 0
0.440000 0.080000 0
0.460000 0.080000 0
0.480000 0.080000 0
0.500000 0.080000 0
0.520000 0.080000 0
0.540000 0.080000 0
0.560000 0.080000 0
0.580000 0.080000 0
0.600000 0.080000 0
0.620000 0.080000 0
0.640000 0.080000 0
0.660000 0.080000 0
0.680000 0.080000 0
0.700000 0.080000 0
0.720000 0.080000 0
0.740000 0.080000 0
0.760000 0.080000 0
0.780000 0.080000 0
0.800000 0.080000 0
0.820000 0.080000 0
0.840000 0.080000 0
0.860000 0.080000 0
0.880000 0.080000 0
0.900000 0.080000 0
0.920000 0.080000 0
0.940000 0.080000 0
0.960000 0.080000 0
0.980000 0.080000 0
1.000000 0.080000 0
0.000000 0.100000 0
0.020000 0.100000 0
0.040000 0.100000 0
0.060000 0.100000 0
0.080000 0.100000 0
0.100000 0.100000 0
0.120000 0.100000 0
0.140000 0.100000 0
0.160000 0.100000 0
0.180000 0.100000 0
0.200000 0.100000 0
0.220000 0.100000 0
0.240000 0.100000 0
0.260000 0.100000 0
0.280000 0.100000 0
0.300000 0.100000 0
0.320000 0.100000 0
0.340000 0.100000 0
0.360000 0.100000 0
0.380000 0.100000 0
0.400000 0.100000 0
0.420000 0.100000 0
0.440000 0.100000 0
0.460000 0.100000 0
0.480000 0.100000 0
0.500000 0.100000 0
0.520000 0.100000 0
0.540000 0.100000 0
0.560000 0.100000 0
0.580000 0.100000 0
0.600000 0.100000 0
0.620000 0.100000 0
0.640000 0.100000 0
0.660000 0.100000 0
0.680000 0.100000 0
0.700000 0.100000 0
0.720000 0.100000 0
0.740000 0.100000 0
0.760000 0.100000 0
0.780000 0.100000 0
0.800000 0.100000 0
0.820000 0.100000 0
0.840000 0.100000 0
0.860000 0.100000 0
0.880000 0.100000 0
0.900000 0.100000 0
0.920000 0.100000 0
0.940000 0.100000 0
0.960000 0.100000 0
0.980000 0.100000 0
1.000000 0.100000 0
0.000000 0.120000 0
0.020000 0.120000 0
0.040000 0.120000 0
0.060000 0.120000 0
0.080000 0.120000 0
0.100000 0.120000 0
0.120000 0.120000 0
0.140000 0.120000 0
0.160000 0.120000 0
0.180000 0.120000 0
0.200000 0.120000 0
0.220000 0.120000 0
0.240000 0.120000 0
0.260000 0.120000 0
0.280000 0.120000 0
0.300000 0.120000 0
0.320000 0.120000 0
0.340000 0.120000 0
0.360000 0.120000 0
0.380000 0.120000 0
0.400000 0.120000 0
0.420000 0.120000 0
0.440000 0.120000 0
0.460000 0.120000 0
0.480000 0.120000 0
0.500000 0.120000 0
0.520000 0.120000 0
0.540000 0.120000 0
0.560000 0.120000 0
0.580000 0.120000 0
0.600000 0.120000 0
0.620000 0.120000 0
0.640000 0.120000 0
0.660000 0.120000 0
0.680000 0.120000 0
0.700000 0.120000 0
0.720000 0.120000 0
0.740000 0.120000 0
0.760000 0.120000 0
0.780000 0.120000 0
0.800000 0.120000 0
0.820000 0.120000 0
0.840000 0.120000 0
0.860000 0.120000 0
0.880000 0.120000 0
0.900000 0.120000 0
0.920000 0.120000 0
0.940000 0.120000 0
0.960000 0.120000 0
0.980000 0.120000 0
1.000000 0.120000 0
0.000000 0.140000 0
0.020000 0.140000 0
0.040000 0.140000 0
0.060000 0.140000 0
0.080000 0.140000 0
0.100000 0.140000 0
0.120000 0.140000 0
0.140000 0.140000 0
0.160000 0.140000 0
0.180000 0.140000 0
0.200000 0.140000 0
0.220000 0.140000 0
0.240000 0.140000 0
0.260000 0.140000 0
0.280000 0.140000 0
0.300000 0.140000 0
0.320000 0.140000 0
0.340000 0.140000 0
0.360000 0.140000 0
0.380000 0.140000 0
0.400000 0.140000 0
0.420000 0.140000 0
0.440000 0.140000 0
0.460000 0.140000 0
0.480000 0.140000 0
0.500000 0.140000 0
0.520000 0.140000 0
0.540000 0.140000 0
0.560000 0.140000 0
0.580000 0.140000 0
0.600000 0.140000 0
0.620000 0.140000 0
0.640000 0.140000 0
0.660000 0.140000 0
0.680000 0.140000 0
0.700000 0.140000 0
0.720000 0.140000 0
0.740000 0.140000 0
0.760000 0.140000 0
0.780000 0.140000 0
0.800000 0.140000 0
0.820000 0.140000 0
0.840000 0.140000 0
0.860000 0.140000 0
0.880000 0.140000 0
0.900000 0.140000 0
0.920000 0.140000 0
0.940000 0.140000 0
0.960000 0.140000 0
0.980000 0.140000 0
1.000000 0.140000 0
0.000000 0.160000 0
0.020000 0.160000 0
0.040000 0.160000 0
0.060000 0.160000 0
0.080000 0.160000 0
0.100000 0.160000 0
0.120000 0.160000 0
0.140000 0.160000 0
0.160000 0.160000 0
0.180000 0.160000 0
0.200000 0.160000 0
0.220000 0.160000 0
0.240000 0.160000 0
0.260000 0.160000 0
0.280000 0.160000 0
0.300000 0.160000 0
0.320000 0.160000 0
0.340000 0.160000 0
0.360000 0.160000 0
0.380000 0.160000 0
0.400000 0.160000 0
0.420000 0.160000 0
0.440000 0.160000 0
0.460000 0.160000 0
0.480000 0.160000 0
0.500000 0.160000 0
0.520000 0.160000 0
0.540000 0.160000 0
0.560000 0.160000 0
0.580000 0.160000 0
0.600000 0.160000 0
0.620000 0.160000 0
0.640000 0.160000 0
0.660000 0.160000 0
0.680000 0.160000 0
0.700000 0.160000 0
0.720000 0.160000 0
0.740000 0.160000 0
0.760000 0.160000 0
0.780000 0.160000 0
0.800000 0.160000 0
0.820000 0.160000 0
0.840000 0.160000 0
0.860000 0.160000 0
0.880000 0.160000 0
0.900000 0.160000 0
0.920000 0.160000 0
0.940000 0.160000 0
0.960000 0.160000 0
0.980000 0.160000 0
1.000000 0.160000 0
0.000000 0.180000 0
0.020000 0.180000 0
0.040000 0.180000 0
0.060000 0.180000 0
0.080000 0.180000 0
0.100000 0.180000 0
0.120000 0.180000 0
0.140000 0.180000 0
0.160000 0.180000 0
0.180000 0.180000 0
0.200000 0.180000 0
0.220000 0.180000 0
0.240000 0.180000 0
0.260000 0.180000 0
0.280000 0.180000 0
0.300000 0.180000 0
0.320000 0.180000 0
0.340000 0.180000 0
0.360000 0.180000 0
0.380000 0.180000 0
0.400000 0.180000 0
0.420000 0.180000 0
0.440000 0.180000 0
0.460000 0.180000 0
0.480000 0.180000 0
0.500000 0.180000 0
0.520000 0.180000 0
0.540000 0.180000 0
0.560000 0.180000 0
0.580000 0.180000 0
0.600000 0.180000 0
0.620000 0.180000 0
[...]
POINT_DATA 2601 

VECTORS velocity float
0.000000 0.000000 0
0.000000 0.000000 0
-0.000000 0.000000 0
-0.000000 0.000000 0
-0.000000 0.000000 0
0.000000 0.000000 0
0.000000 0.000000 0
0.000000 0.000000 0
0.000000 0.000000 0
-0.000000 0.000000 0
-0.000000 0.000000 0
-0.000000 0.000000 0
-0.000000 0.000000 0
-0.000000 0.000000 0
0.000000 0.000000 0
0.000000 0.000000 0
0.000000 0.000000 0
0.000000 0.000000 0
-0.000000 0.000000 0
-0.000000 0.000000 0
-0.000000 0.000000 0
-0.000000 0.000000 0
-0.000000 0.000000 0
0.000000 0.000000 0
0.000000 0.000000 0
0.000000 0.000000 0
0.000000 0.000000 0
0.000000 0.000000 0
-0.000000 0.000000 0
-0.000000 0.000000 0
-0.000000 0.000000 0
-0.000000 0.000000 0
-0.000000 0.000000 0
-0.000000 0.000000 0
-0.000000 0.000000 0
0.000000 0.000000 0
0.000000 0.000000 0
0.000000 0.000000 0
0.000000 0.000000 0
0.000000 0.000000 0
0.000000 0.000000 0
-0.000000 0.000000 0
-0.000000 0.000000 0
-0.000000 0.000000 0
-0.000000 0.000000 0
0.000000 0.000000 0
0.000000 0.000000 0
0.000000 0.000000 0
0.000000 0.000000 0
-0.000000 0.000000 0
0.000000 0.000000 0
0.000000 0.000000 0
0.000060 -0.000060 0
0.000081 -0.000023 0
-0.000014 0.000055 0
-0.000255 0.000144 0
-0.000645 0.000228 0
-0.001171 0.000302 0
-0.001815 0.000363 0
-0.002557 0.000412 0
-0.003377 0.000449 0
-0.004255 0.000476 0
-0.005172 0.000493 0
-0.006114 0.000502 0
-0.007064 0.000504 0
-0.008010 0.000499 0
-0.008938 0.000487 0
-0.009835 0.000468 0
-0.010689 0.000442 0
-0.011487 0.000410 0
-0.012216 0.000372 0
-0.012865 0.000326 0
-0.013422 0.000274 0
-0.013873 0.000216 0
-0.014208 0.000152 0
-0.014418 0.000082 0
-0.014494 0.000009 0
-0.014430 -0.000068 0
-0.014223 -0.000147 0
-0.013870 -0.000225 0
-0.013376 -0.000301 0
-0.012745 -0.000374 0
-0.011988 -0.000439 0
-0.011119 -0.000497 0
-0.010153 -0.000544 0
-0.009112 -0.000579 0
-0.008019 -0.000601 0
-0.006899 -0.000607 0
-0.005780 -0.000599 0
-0.004688 -0.000575 0
-0.003652 -0.000535 0
-0.002697 -0.000482 0
-0.001847 -0.000416 0
-0.001122 -0.000339 0
-0.000538 -0.000255 0
-0.000105 -0.000167 0
0.000174 -0.000079 0
0.000305 0.000002 0
0.000306 0.000067 0
0.000213 0.000100 0
0.000082 0.000082 0
0.000000 0.000000 0
0.000000 -0.000000 0
0.000024 -0.000082 0
-0.000075 0.000074 0
-0.000386 0.000337 0
-0.000944 0.000631 0
-0.001754 0.000916 0
-0.002797 0.001171 0
-0.004047 0.001386 0
-0.005469 0.001561 0
-0.007029 0.001697 0
-0.008693 0.001795 0
-0.010430 0.001859 0
-0.012210 0.001892 0
-0.014005 0.001897 0
-0.015788 0.001874 0
-0.017534 0.001825 0
-0.019220 0.001751 0
-0.020820 0.001652 0
-0.022312 0.001528 0
-0.023672 0.001379 0
-0.024877 0.001205 0
-0.025904 0.001007 0
-0.026733 0.000787 0
-0.027344 0.000546 0
-0.027719 0.000286 0
-0.027844 0.000012 0
-0.027710 -0.000272 0
-0.027310 -0.000560 0
-0.026644 -0.000847 0
-0.025717 -0.001125 0
-0.024542 -0.001387 0
-0.023136 -0.001627 0
-0.021524 -0.001835 0
-0.019738 -0.002007 0
-0.017813 -0.002134 0
-0.015792 -0.002213 0
-0.013720 -0.002239 0
-0.011645 -0.002211 0
-0.009616 -0.002128 0
-0.007682 -0.001991 0
-0.005888 -0.001805 0
-0.004276 -0.001575 0
-0.002882 -0.001309 0
-0.001734 -0.001017 0
-0.000848 -0.000712 0
-0.000229 -0.000410 0
0.000133 -0.000132 0
0.000269 0.000092 0
0.000232 0.000224 0
0.000103 0.000213 0
0.000000 0.000000 0
0.000000 -0.000000 0
-0.000057 0.000015 0
-0.000350 0.000387 0
-0.000948 0.000925 0
-0.001879 0.001512 0
-0.003139 0.002081 0
-0.004705 0.002595 0
-0.006542 0.003034 0
-0.008606 0.003393 0
-0.010854 0.003673 0
-0.013241 0.003878 0
-0.015724 0.004010 0
-0.018262 0.004077 0
-0.020817 0.004082 0
-0.023351 0.004028 0
-0.025829 0.003918 0
-0.028216 0.003753 0
-0.030478 0.003535 0
-0.032581 0.003262 0
-0.034494 0.002936 0
-0.036183 0.002559 0
-0.037618 0.002131 0
-0.038771 0.001656 0
-0.039614 0.001138 0
-0.040126 0.000583 0
-0.040286 -0.000000 0
-0.040084 -0.000603 0
-0.039511 -0.001213 0
-0.038568 -0.001818 0
-0.037265 -0.002403 0
-0.035616 -0.002955 0
-0.033649 -0.003457 0
-0.031396 -0.003895 0
-0.028901 -0.004255 0
-0.026212 -0.004525 0
-0.023387 -0.004694 0
-0.020486 -0.004754 0
-0.017575 -0.004703 0
-0.014718 -0.004538 0
-0.011981 -0.004264 0
-0.009427 -0.003887 0
-0.007111 -0.003421 0
-0.005080 -0.002882 0
-0.003374 -0.002290 0
-0.002013 -0.001672 0
-0.001007 -0.001060 0
-0.000343 -0.000496 0
0.000014 -0.000032 0
0.000123 0.000267 0
0.000077 0.000314 0
0.000000 0.000000 0
0.000000 -0.000000 0
-0.000154 0.000268 0
-0.000677 0.000966 0
-0.001604 0.001867 0
-0.002942 0.002822 0
-0.004676 0.003742 0
-0.006772 0.004572 0
-0.009187 0.005286 0
-0.011870 0.005873 0
-0.014769 0.006332 0
-0.017832 0.006665 0
-0.021006 0.006881 0
-0.024242 0.006986 0
-0.027492 0.006985 0
-0.030709 0.006885 0
-0.033850 0.006689 0
-0.036870 0.006399 0
-0.039727 0.006017 0
-0.042380 0.005544 0
-0.044787 0.004981 0
-0.046908 0.004330 0
-0.048707 0.003595 0
-0.050147 0.002783 0
-0.051197 0.001900 0
-0.051830 0.000958 0
-0.052023 -0.000030 0
-0.051763 -0.001047 0
-0.051041 -0.002076 0
-0.049859 -0.003093 0
-0.048227 -0.004077 0
-0.046167 -0.005003 0
-0.043710 -0.005847 0
-0.040897 -0.006583 0
-0.037779 -0.007190 0
-0.034417 -0.007648 0
-0.030879 -0.007939 0
-0.027238 -0.008052 0
-0.023572 -0.007979 0
-0.019962 -0.007721 0
-0.016486 -0.007282 0
-0.013220 -0.006676 0
-0.010232 -0.005922 0
-0.007580 -0.005046 0
-0.005311 -0.004084 0
-0.003455 -0.003078 0
-0.002024 -0.002080 0
-0.001008 -0.001153 0
-0.000373 -0.000375 0
-0.000058 0.000161 0
0.000026 0.000336 0
0.000000 0.000000 0
0.000000 -0.000000 0
-0.000254 0.000692 0
-0.001021 0.001837 0
-0.002296 0.003190 0
-0.004061 0.004584 0
-0.006281 0.005910 0
-0.008911 0.007105 0
-0.011898 0.008132 0
-0.015184 0.008976 0
-0.018708 0.009636 0
-0.022412 0.010115 0
-0.026236 0.010421 0
-0.030123 0.010563 0
-0.034018 0.010549 0
-0.037867 0.010386 0
-0.041617 0.010079 0
-0.045219 0.009631 0
-0.048622 0.009044 0
-0.051777 0.008321 0
-0.054636 0.007465 0
-0.057154 0.006479 0
-0.059287 0.005369 0
-0.060995 0.004146 0
-0.062240 0.002820 0
-0.062992 0.001409 0
-0.063226 -0.000067 0
-0.062926 -0.001585 0
-0.062083 -0.003117 0
-0.060698 -0.004631 0
-0.058786 -0.006095 0
-0.056368 -0.007472 0
-0.053482 -0.008727 0
-0.050173 -0.009826 0
-0.046500 -0.010735 0
-0.042532 -0.011426 0
-0.038346 -0.011873 0
-0.034026 -0.012061 0
-0.029662 -0.011978 0
-0.025346 -0.011624 0
-0.021167 -0.011006 0
-0.017215 -0.010142 0
-0.013567 -0.009061 0
-0.010295 -0.007802 0
-0.007453 -0.006414 0
-0.005079 -0.004959 0
-0.003191 -0.003508 0
-0.001786 -0.002148 0
-0.000833 -0.000982 0
-0.000277 -0.000132 0
-0.000036 0.000256 0
0.000000 0.000000 0
0.000000 0.000000 0
-0.000352 0.001290 0
-0.001365 0.003009 0
-0.002995 0.004906 0
-0.005192 0.006806 0
-0.007902 0.008591 0
-0.011065 0.010189 0
-0.014617 0.011559 0
-0.018491 0.012684 0
-0.022621 0.013560 0
-0.026939 0.014193 0
-0.031380 0.014592 0
-0.035882 0.014767 0
-0.040383 0.014729 0
-0.044823 0.014485 0
-0.049144 0.014042 0
-0.053288 0.013404 0
-0.057201 0.012575 0
-0.060826 0.011558 0
-0.064111 0.010358 0
-0.067005 0.008981 0
-0.069458 0.007436 0
-0.071425 0.005735 0
-0.072866 0.003897 0
-0.073746 0.001945 0
-0.074038 -0.000096 0
-0.073723 -0.002191 0
-0.072792 -0.004303 0
-0.071245 -0.006390 0
-0.069097 -0.008407 0
-0.066372 -0.010307 0
-0.063108 -0.012042 0
-0.059357 -0.013565 0
-0.055183 -0.014831 0
-0.050659 -0.015802 0
-0.045872 -0.016445 0
-0.040914 -0.016736 0
-0.035885 -0.016660 0
-0.030887 -0.016216 0
-0.026022 -0.015413 0
-0.021390 -0.014276 0
-0.017081 -0.012841 0
-0.013177 -0.011161 0
-0.009743 -0.009300 0
-0.006827 -0.007339 0
-0.004455 -0.005373 0
-0.002631 -0.003512 0
-0.001333 -0.001884 0
-0.000514 -0.000636 0
-0.000101 0.000059 0
0.000000 0.000000 0
0.000000 0.000000 0
-0.000448 0.002058 0
-0.001702 0.004479 0
-0.003681 0.007016 0
-0.006307 0.009490 0
-0.009504 0.011784 0
-0.013195 0.013820 0
-0.017302 0.015559 0
-0.021751 0.016980 0
-0.026467 0.018083 0
-0.031376 0.018874 0
-0.036409 0.019364 0
-0.041497 0.019565 0
-0.046573 0.019490 0
-0.051574 0.019147 0
-0.056435 0.018545 0
-0.061095 0.017688 0
-0.065493 0.016582 0
-0.069569 0.015232 0
-0.073265 0.013643 0
-0.076524 0.011825 0
-0.079294 0.009789 0
-0.081526 0.007554 0
-0.083174 0.005142 0
-0.084202 0.002582 0
-0.084578 -0.000090 0
-0.084281 -0.002832 0
-0.083299 -0.005595 0
-0.081633 -0.008326 0
-0.079294 -0.010968 0
-0.076309 -0.013460 0
-0.072716 -0.015741 0
-0.068570 -0.017751 0
-0.063937 -0.019433 0
-0.058896 -0.020737 0
-0.053540 -0.021619 0
-0.047969 -0.022048 0
-0.042292 -0.022005 0
-0.036622 -0.021486 0
-0.031071 -0.020502 0
-0.025752 -0.019083 0
-0.020767 -0.017274 0
-0.016211 -0.015141 0
-0.012159 -0.012765 0
-0.008673 -0.010247 0
-0.005789 -0.007703 0
-0.003520 -0.005270 0
-0.001856 -0.003099 0
-0.000758 -0.001364 0
-0.000166 -0.000258 0
0.000000 0.000000 0
0.000000 0.000000 0
-0.000538 0.002992 0
-0.002026 0.006241 0
-0.004346 0.009511 0
-0.007392 0.012629 0
-0.011066 0.015479 0
-0.015272 0.017988 0
-0.019922 0.020116 0
-0.024930 0.021849 0
-0.030214 0.023185 0
-0.035694 0.024135 0
-0.041296 0.024712 0
-0.046946 0.024931 0
-0.052575 0.024806 0
-0.058113 0.024347 0
-0.063493 0.023563 0
-0.068650 0.022462 0
-0.073518 0.021049 0
-0.078033 0.019330 0
-0.082134 0.017313 0
-0.085761 0.015010 0
-0.088856 0.012437 0
-0.091366 0.009615 0
-0.093243 0.006574 0
-0.094445 0.003348 0
-0.094939 -0.000017 0
-0.094699 -0.003470 0
-0.093710 -0.006951 0
-0.091970 -0.010395 0
-0.089490 -0.013731 0
-0.086292 -0.016885 0
-0.082417 -0.019781 0
-0.077917 -0.022344 0
-0.072862 -0.024505 0
-0.067336 -0.026199 0
-0.061434 -0.027372 0
-0.055265 -0.027984 0
-0.048946 -0.028008 0
-0.042600 -0.027437 0
-0.036352 -0.026283 0
-0.030326 -0.024580 0
-0.024640 -0.022383 0
-0.019401 -0.019769 0
-0.014700 -0.016838 0
-0.010611 -0.013710 0
-0.007184 -0.010526 0
-0.004446 -0.007445 0
-0.002395 -0.004646 0
-0.001007 -0.002325 0
-0.000232 -0.000699 0
0.000000 0.000000 0
0.000000 0.000000 0
-0.000625 0.004084 0
-0.002335 0.008285 0
-0.004983 0.012382 0
-0.008436 0.016211 0
-0.012571 0.019665 0
-0.017279 0.022678 0
-0.022455 0.025217 0
-0.028004 0.027272 0
-0.033837 0.028847 0
-0.039868 0.029956 0
-0.046018 0.030616 0
-0.052210 0.030844 0
-0.058370 0.030656 0
-0.064427 0.030065 0
-0.070311 0.029082 0
-0.075952 0.027713 0
-0.081281 0.025966 0
-0.086234 0.023849 0
-0.090743 0.021371 0
-0.094745 0.018546 0
-0.098180 0.015394 0
-0.100991 0.011941 0
-0.103126 0.008221 0
-0.104539 0.004278 0
-0.105191 0.000163 0
-0.105053 -0.004061 0
-0.104106 -0.008323 0
-0.102344 -0.012547 0
-0.099773 -0.016647 0
-0.096413 -0.020534 0
-0.092301 -0.024116 0
-0.087490 -0.027305 0
-0.082050 -0.030014 0
-0.076064 -0.032165 0
-0.069635 -0.033690 0
-0.062876 -0.034536 0
-0.055913 -0.034671 0
-0.048880 -0.034080 0
-0.041914 -0.032776 0
-0.035153 -0.030794 0
-0.028731 -0.028199 0
-0.022772 -0.025081 0
-0.017382 -0.021555 0
-0.012652 -0.017763 0
-0.008648 -0.013869 0
-0.005411 -0.010059 0
-0.002953 -0.006538 0
-0.001261 -0.003528 0
-0.000297 -0.001265 0
0.000000 0.000000 0
0.000000 -0.000000 0
-0.000707 0.005326 0
-0.002629 0.010599 0
-0.005590 0.015612 0
-0.009431 0.020218 0
-0.014010 0.024323 0
-0.019199 0.027872 0
-0.024881 0.030842 0
-0.030951 0.033230 0
-0.037312 0.035049 0
-0.043874 0.036316 0
-0.050551 0.037054 0
-0.057266 0.037284 0
-0.063941 0.037023 0
-0.070501 0.036287 0
-0.076876 0.035087 0
-0.082992 0.033432 0
-0.088781 0.031331 0
-0.094172 0.028791 0
-0.099097 0.025825 0
-0.103490 0.022448 0
-0.107288 0.018683 0
-0.110428 0.014561 0
-0.112856 0.010121 0
-0.114520 0.005413 0
-0.115377 0.000497 0
-0.115393 -0.004554 0
-0.114543 -0.009660 0
-0.112815 -0.014729 0
-0.110209 -0.019662 0
-0.106741 -0.024356 0
-0.102443 -0.028703 0
-0.097365 -0.032596 0
-0.091575 -0.035931 0
-0.085158 -0.038613 0
-0.078218 -0.040560 0
-0.070874 -0.041706 0
-0.063262 -0.042004 0
-0.055524 -0.041436 0
-0.047813 -0.040009 0
-0.040282 -0.037762 0
-0.033083 -0.034764 0
-0.026358 -0.031118 0
-0.020233 -0.026957 0
-0.014818 -0.022444 0
-0.010197 -0.017767 0
-0.006427 -0.013140 0
-0.003536 -0.008795 0
-0.001525 -0.004981 0
-0.000363 -0.001960 0
0.000000 0.000000 0
0.000000 -0.000000 0
-0.000783 0.006712 0
-0.002905 0.013169 0
-0.006162 0.019185 0
-0.010372 0.024632 0
-0.015373 0.029433 0
-0.021020 0.033549 0
-0.027185 0.036969 0
-0.033753 0.039702 0
-0.040619 0.041769 0
-0.047688 0.043195 0
-0.054873 0.044008 0
-0.062090 0.044233 0
-0.069262 0.043892 0
-0.076313 0.043000 0
-0.083168 0.041572 0
-0.089755 0.039618 0
-0.096001 0.037145 0
-0.101836 0.034165 0
-0.107190 0.030689 0
-0.111993 0.026737 0
-0.116178 0.022332 0
-0.119681 0.017509 0
-0.122441 0.012313 0
-0.124403 0.006800 0
-0.125518 0.001037 0
-0.125744 -0.004894 0
-0.125051 -0.010902 0
-0.123417 -0.016882 0
-0.120838 -0.022721 0
-0.117321 -0.028299 0
-0.112892 -0.033492 0
-0.107595 -0.038174 0
-0.101496 -0.042222 0
-0.094678 -0.045522 0
-0.087246 -0.047973 0
-0.079325 -0.049492 0
-0.071057 -0.050021 0
-0.062596 -0.049529 0
-0.054110 -0.048017 0
-0.045770 -0.045524 0
-0.037747 -0.042124 0
-0.030203 -0.037931 0
-0.023290 -0.033094 0
-0.017138 -0.027799 0
-0.011852 -0.022260 0
-0.007509 -0.016719 0
-0.004155 -0.011440 0
-0.001802 -0.006701 0
-0.000433 -0.002790 0
0.000000 0.000000 0
0.000000 -0.000000 0
-0.000855 0.008231 0
-0.003163 0.015979 0
-0.006698 0.023080 0
-0.011254 0.029429 0
-0.016651 0.034970 0
-0.022730 0.039684 0
-0.029351 0.043574 0
-0.036390 0.046663 0
-0.043735 0.048984 0
-0.051288 0.050570 0
-0.058957 0.051457 0
-0.066657 0.051674 0
-0.074308 0.051246 0
-0.081834 0.050193 0
-0.089159 0.048529 0
-0.096211 0.046266 0
-0.102916 0.043412 0
-0.109201 0.039980 0
-0.114996 0.035981 0
-0.120229 0.031436 0
-0.124830 0.026371 0
-0.128730 0.020824 0
-0.131866 0.014843 0
-0.134175 0.008490 0
-0.135603 0.001838 0
-0.136100 -0.005021 0
-0.135628 -0.011987 0
-0.134156 -0.018942 0
-0.131671 -0.025759 0
-0.128170 -0.032303 0
-0.123672 -0.038428 0
-0.118213 -0.043992 0
-0.111852 -0.048848 0
-0.104670 -0.052863 0
-0.096771 -0.055913 0
-0.088284 -0.057895 0
-0.079357 -0.058733 0
-0.070157 -0.058383 0
-0.060866 -0.056835 0
-0.051674 -0.054125 0
-0.042775 -0.050331 0
-0.034357 -0.045575 0
-0.026595 -0.040023 0
-0.019646 -0.033882 0
-0.013641 -0.027396 0
-0.008677 -0.020837 0
-0.004821 -0.014502 0
-0.002100 -0.008704 0
-0.000507 -0.003762 0
0.000000 0.000000 0
0.000000 -0.000000 0
-0.000920 0.009875 0
-0.003402 0.019013 0
-0.007193 0.027275 0
-0.012070 0.034585 0
-0.017836 0.040909 0
-0.024318 0.046249 0
-0.031365 0.050628 0
-0.038845 0.054086 0
-0.046641 0.056667 0
-0.054650 0.058417 0
-0.062777 0.059377 0
-0.070936 0.059585 0
-0.079047 0.059069 0
-0.087032 0.057851 0
-0.094815 0.055949 0
-0.102325 0.053374 0
-0.109487 0.050136 0
-0.116228 0.046246 0
-0.122476 0.041717 0
-0.128158 0.036570 0
-0.133202 0.030833 0
-0.137535 0.024545 0
-0.141089 0.017758 0
-0.143796 0.010537 0
-0.145594 0.002962 0
-0.146426 -0.004870 0
-0.146243 -0.012846 0
-0.145006 -0.020839 0
-0.142687 -0.028707 0
-0.139276 -0.036298 0
-0.134779 -0.043449 0
-0.129222 -0.049994 0
-0.122656 -0.055765 0
-0.115156 -0.060602 0
-0.106825 -0.064359 0
-0.097791 -0.066907 0
-0.088209 -0.068149 0
-0.078257 -0.068020 0
-0.068134 -0.066500 0
-0.058050 -0.063614 0
-0.048223 -0.059441 0
-0.038868 -0.054111 0
-0.030192 -0.047805 0
-0.022381 -0.040754 0
-0.015592 -0.033229 0
-0.009952 -0.025539 0
-0.005548 -0.018017 0
-0.002425 -0.011015 0
-0.000588 -0.004890 0
0.000000 -0.000000 0
0.000000 -0.000000 0
-0.000980 0.011633 0
-0.003619 0.022252 0
-0.007644 0.031748 0
-0.012815 0.040072 0
-0.018919 0.047218 0
-0.025771 0.053212 0
-0.033210 0.058101 0
-0.041098 0.061940 0
-0.049313 0.064789 0
-0.057746 0.066706 0
-0.066303 0.067743 0
-0.074895 0.067944 0
-0.083442 0.067341 0
-0.091866 0.065961 0
-0.100093 0.063822 0
-0.108050 0.060937 0
-0.115664 0.057316 0
-0.122863 0.052970 0
-0.129574 0.047912 0
-0.135722 0.042162 0
-0.141233 0.035748 0
-0.146032 0.028711 0
-0.150045 0.021104 0
-0.153199 0.012995 0
-0.155424 0.004468 0
-0.156655 -0.004372 0
-0.156832 -0.013407 0
-0.155904 -0.022498 0
-0.153831 -0.031489 0
-0.150590 -0.040211 0
-0.146172 -0.048483 0
-0.140592 -0.056114 0
-0.133890 -0.062914 0
-0.126131 -0.068694 0
-0.117413 -0.073278 0
-0.107864 -0.076511 0
-0.097642 -0.078267 0
-0.086937 -0.078457 0
-0.075960 -0.077043 0
-0.064947 -0.074037 0
-0.054140 -0.069512 0
-0.043787 -0.063605 0
-0.034126 -0.056511 0
-0.025379 -0.048482 0
-0.017737 -0.039824 0
-0.011356 -0.030881 0
-0.006350 -0.022029 0
-0.002784 -0.013664 0
-0.000677 -0.006188 0
0.000000 -0.000000 0
0.000000 0.000000 0
-0.001034 0.013495 0
-0.003813 0.025677 0
-0.008049 0.036471 0
-0.013483 0.045859 0
-0.019891 0.053864 0
-0.027077 0.060540 0
-0.034872 0.065956 0
-0.043132 0.070189 0
-0.051728 0.073316 0
-0.060552 0.075407 0
-0.069504 0.076526 0
-0.078499 0.076723 0
-0.087453 0.076039 0
-0.096292 0.074502 0
-0.104942 0.072133 0
-0.113331 0.068945 0
-0.121388 0.064950 0
-0.129041 0.060155 0
-0.136217 0.054576 0
-0.142842 0.048229 0
-0.148839 0.041143 0
-0.154131 0.033357 0
-0.158639 0.024925 0
-0.162286 0.015916 0
-0.164993 0.006418 0
-0.166686 -0.003462 0
-0.167294 -0.013597 0
-0.166753 -0.023839 0
-0.165010 -0.034021 0
-0.162025 -0.043957 0
-0.157775 -0.053447 0
-0.152259 -0.062276 0
-0.145502 -0.070226 0
-0.137558 -0.077079 0
-0.128515 -0.082626 0
-0.118498 -0.086678 0
-0.107666 -0.089076 0
-0.096216 -0.089702 0
-0.084378 -0.088490 0
-0.072405 -0.085435 0
-0.060571 -0.080601 0
-0.049157 -0.074124 0
-0.038440 -0.066213 0
-0.028679 -0.057143 0
-0.020106 -0.047252 0
-0.012912 -0.036926 0
-0.007242 -0.026589 0
-0.003185 -0.016687 0
-0.000778 -0.007674 0
0.000000 -0.000000 0
0.000000 0.000000 0
-0.001080 0.015447 0
-0.003983 0.029267 0
-0.008402 0.041417 0
-0.014068 0.051913 0
-0.020743 0.060812 0
-0.028225 0.068194 0
-0.036336 0.074156 0
-0.044925 0.078795 0
-0.053863 0.082209 0
-0.063037 0.084483 0
-0.072348 0.085690 0
-0.081708 0.085892 0
-0.091037 0.085134 0
-0.100260 0.083450 0
-0.109306 0.080861 0
-0.118105 0.077383 0
-0.126587 0.073026 0
-0.134683 0.067799 0
-0.142320 0.061712 0
-0.149424 0.054783 0
-0.155918 0.047037 0
-0.161722 0.038512 0
-0.166755 0.029259 0
-0.170933 0.019349 0
-0.174171 0.008868 0
-0.176385 -0.002072 0
-0.177493 -0.013340 0
-0.177418 -0.024781 0
-0.176091 -0.036216 0
-0.173455 -0.047446 0
-0.169470 -0.058249 0
-0.164116 -0.068388 0
-0.157399 -0.077615 0
-0.149360 -0.085681 0
-0.140073 -0.092339 0
-0.129653 -0.097361 0
-0.118260 -0.100548 0
-0.106095 -0.101746 0
-0.093399 -0.100854 0
-0.080449 -0.097843 0
-0.067549 -0.092760 0
-0.055017 -0.085736 0
-0.043171 -0.076988 0
-0.032316 -0.066816 0
-0.022729 -0.055591 0
-0.014642 -0.043745 0
-0.008237 -0.031756 0
-0.003634 -0.020127 0
-0.000891 -0.009372 0
0.000000 -0.000000 0
0.000000 0.000000 0
-0.001120 0.017478 0
-0.004126 0.032998 0
-0.008701 0.046556 0
-0.014563 0.058200 0
-0.021467 0.068021 0
-0.029202 0.076133 0
-0.037585 0.082657 0
-0.046460 0.087717 0
-0.055695 0.091427 0
-0.065174 0.093892 0
-0.074800 0.095197 0
-0.084484 0.095412 0
-0.094147 0.094591 0
-0.103717 0.092771 0
-0.113124 0.089978 0
-0.122302 0.086227 0
-0.131184 0.081528 0
-0.139701 0.075888 0
-0.147784 0.069316 0
-0.155359 0.061826 0
-0.162349 0.053441 0
-0.168675 0.044195 0
-0.174251 0.034136 0
-0.178989 0.023332 0
-0.182798 0.011870 0
-0.185585 -0.000140 0
-0.187257 -0.012564 0
-0.187724 -0.025241 0
-0.186900 -0.037984 0
-0.184710 -0.050578 0
-0.181093 -0.062786 0
-0.176010 -0.074346 0
-0.169445 -0.084982 0
-0.161419 -0.094406 0
-0.151988 -0.102333 0
-0.141255 -0.108491 0
-0.129372 -0.112635 0
-0.116540 -0.114563 0
-0.103013 -0.114135 0
-0.089087 -0.111284 0
-0.075096 -0.106033 0
-0.061396 -0.098503 0
-0.048353 -0.088914 0
-0.036322 -0.077585 0
-0.025633 -0.064926 0
-0.016567 -0.051418 0
-0.009350 -0.037597 0
-0.004140 -0.024033 0
-0.001020 -0.011309 0
0.000000 -0.000000 0
0.000000 0.000000 0
-0.001151 0.019573 0
-0.004241 0.036847 0
-0.008941 0.051854 0
-0.014963 0.064680 0
-0.022055 0.075451 0
-0.029998 0.084312 0
-0.038606 0.091414 0
-0.047718 0.096905 0
-0.057200 0.100923 0
-0.066936 0.103588 0
-0.076827 0.104999 0
-0.086786 0.105239 0
-0.096736 0.104367 0
-0.106607 0.102427 0
-0.116333 0.099447 0