# vtk DataFile Version 2.0
generated by CFD-lab course output (written by Tobias Neckel) 
ASCII

DATASET STRUCTURED_GRID
DIMENSIONS  51 51 1 
POINTS 2601 float

0.000000 0.000000 0
0.020000 0.000000 0
0.040000 0.000000 0
0.060000 0.000000 0
0.080000 0.000000 0
0.100000 0.000000 0
0.120000 0.000000 0
0.140000 0.000000 0
0.160000 0.000000 0
0.180000 0.000000 0
0.200000 0.000000 0
0.220000 0.000000 0
0.240000 0.000000 0
0.260000 0.000000 0
0.280000 0.000000 0
0.300000 0.000000 0
0.320000 0.000000 0
0.340000 0.000000 0
0.360000 0.000000 0
0.380000 0.000000 0
0.400000 0.000000 0
0.420000 0.000000 0
0.440000 0.000000 0
0.460000 0.000000 0
0.480000 0.000000 0
0.500000 0.000000 0
0.520000 0.000000 0
0.540000 0.000000 0
0.560000 0.000000 0
0.580000 0.000000 0
0.600000 0.000000 0
0.620000 0.000000 0
0.640000 0.000000 0
0.660000 0.000000 0
0.680000 0.000000 0
0.700000 0.000000 0
0.720000 0.000000 0
0.740000 0.000000 0
0.760000 0.000000 0
0.780000 0.000000 0
0.800000 0.000000 0
0.820000 0.000000 0
0.840000 0.000000 0
0.860000 0.000000 0
0.880000 0.000000 0
0.900000 0.000000 0
0.920000 0.000000 0
0.940000 0.000000 0
0.960000 0.000000 0
0.980000 0.000000 0
1.000000 0.000000 0
0.000000 0.020000 0
0.020000 0.020000 0
0.040000 0.020000 0
0.060000 0.020000 0
0.080000 0.020000 0
0.100000 0.020000 0
0.120000 0.020000 0
0.140000 0.020000 0
0.160000 0.020000 0
0.180000 0.020000 0
0.200000 0.020000 0
0.220000 0.020000 0
0.240000 0.020000 0
0.260000 0.020000 0
0.280000 0.020000 0
0.300000 0.020000 0
0.320000 0.020000 0
0.340000 0.020000 0
0.360000 0.020000 0
0.380000 0.020000 0
0.400000 0.020000 0
0.420000 0.020000 0
0.440000 0.020000 0
0.460000 0.020000 0
0.480000 0.020000 0
0.500000 0.020000 0
0.520000 0.020000 0
0.540000 0.020000 0
0.560000 0.020000 0
0.580000 0.020000 0
0.600000 0.020000 0
0.620000 0.020000 0
0.640000 0.020000 0
0.660000 0.020000 0
0.680000 0.020000 0
0.700000 0.020000 0
0.720000 0.020000 0
0.740000 0.020000 0
0.760000 0.020000 0
0.780000 0.020000 0
0.800000 0.020000 0
0.820000 0.020000 0
0.840000 0.020000 0
0.860000 0.020000 0
0.880000 0.020000 0
0.900000 0.020000 0
0.920000 0.020000 0
0.940000 0.020000 0
0.960000 0.020000 0
0.980000 0.020000 0
1.000000 0.020000 0
0.000000 0.040000 0
0.020000 0.040000 0
0.040000 0.040000 0
0.060000 0.040000 0
0.080000 0.040000 0
0.100000 0.040000 0
0.120000 0.040000 0
0.140000 0.040000 0
0.160000 0.040000 0
0.180000 0.040000 0
0.200000 0.040000 0
0.220000 0.040000 0
0.240000 0.040000 0
0.260000 0.040000 0
0.280000 0.040000 0
0.300000 0.040000 0
0.320000 0.040000 0
0.340000 0.040000 0
0.360000 0.040000 0
0.380000 0.040000 0
0.400000 0.040000 0
0.420000 0.040000 0
0.440000 0.040000 0
0.460000 0.040000 0
0.480000 0.040000 0
0.500000 0.040000 0
0.520000 0.040000 0
0.540000 0.040000 0
0.560000 0.040000 0
0.580000 0.040000 0
0.600000 0.040000 0
0.620000 0.040000 0
0.640000 0.040000 0
0.660000 0.040000 0
0.680000 0.040000 0
0.700000 0.040000 0
0.720000 0.040000 0
0.740000 0.040000 0
0.760000 0.040000 0
0.780000 0.040000 0
0.800000 0.040000 0
0.820000 0.040000 0
0.840000 0.040000 0
0.860000 0.040000 0
0.880000 0.040000 0
0.900000 0.040000 0
0.920000 0.040000 0
0.940000 0.040000 0
0.960000 0.040000 0
0.980000 0.040000 0
1.000000 0.040000 0
0.000000 0.060000 0
0.020000 0.060000 0
0.040000 0.060000 0
0.060000 0.060000 0
0.080000 0.060000 0
0.100000 0.060000 0
0.120000 0.060000 0
0.140000 0.060000 0
0.160000 0.060000 0
0.180000 0.060000 0
0.200000 0.060000 0
0.220000 0.060000 0
0.240000 0.060000 0
0.260000 0.060000 0
0.280000 0.060000 0
0.300000 0.060000 0
0.320000 0.060000 0
0.340000 0.060000 0
0.360000 0.060000 0
0.380000 0.060000 0
0.400000 0.060000 0
0.420000 0.060000 0
0.440000 0.060000 0
0.460000 0.060000 0
0.480000 0.060000 0
0.500000 0.060000 0
0.520000 0.060000 0
0.540000 0.060000 0
0.560000 0.060000 0
0.580000 0.060000 0
0.600000 0.060000 0
0.620000 0.060000 0
0.640000 0.060000 0
0.660000 0.060000 0
0.680000 0.060000 0
0.700000 0.060000 0
0.720000 0.060000 0
0.740000 0.060000 0
0.760000 0.060000 0
0.780000 0.060000 0
0.800000 0.060000 0
0.820000 0.060000 0
0.840000 0.060000 0
0.860000 0.060000 0
0.880000 0.060000 0
0.900000 0.060000 0
0.920000 0.060000 0
0.940000 0.060000 0
0.960000 0.060000 0
0.980000 0.060000 0
1.000000 0.060000 0
0.000000 0.080000 0
0.020000 0.080000 0
0.040000 0.080000 0
0.060000 0.080000 0
0.080000 0.080000 0
0.100000 0.080000 0
0.120000 0.080000 0
0.140000 0.080000 0
0.160000 0.080000 0
0.180000 0.080000 0
0.200000 0.080000 0
0.220000 0.080000 0
0.240000 0.080000 0
0.260000 0.080000 0
0.280000 0.080000 0
0.300000 0.080000 0
0.320000 0.080000 0
0.340000 0.080000 0
0.360000 0.080000 0
0.380000 0.080000 0
0.400000 0.080000 0
0.420000 0.080000 0
0.440000 0.080000 0
0.460000 0.080000 0
0.480000 0.080000 0
0.500000 0.080000 0
0.520000 0.080000 0
0.540000 0.080000 0
0.560000 0.080000 0
0.580000 0.080000 0
0.600000 0.080000 0
0.620000 0.080000 0
0.640000 0.080000 0
0.660000 0.080000 0
0.680000 0.080000 0
0.700000 0.080000 0
0.720000 0.080000 0
0.740000 0.080000 0
0.760000 0.080000 0
0.780000 0.080000 0
0.800000 0.080000 0
0.820000 0.080000 0
0.840000 0.080000 0
0.860000 0.080000 0
0.880000 0.080000 0
0.900000 0.080000 0
0.920000 0.080000 0
0.940000 0.080000 0
0.960000 0.080000 0
0.980000 0.080000 0
1.000000 0.080000 0
0.000000 0.100000 0
0.020000 0.100000 0
0.040000 0.100000 0
0.060000 0.100000 0
0.080000 0.100000 0
0.100000 0.100000 0
0.120000 0.100000 0
0.140000 0.100000 0
0.160000 0.100000 0
0.180000 0.100000 0
0.200000 0.100000 0
0.220000 0.100000 0
0.240000 0.100000 0
0.260000 0.100000 0
0.280000 0.100000 0
0.300000 0.100000 0
0.320000 0.100000 0
0.340000 0.100000 0
0.360000 0.100000 0
0.380000 0.100000 0
0.400000 0.100000 0
0.420000 0.100000 0
0.440000 0.100000 0
0.460000 0.100000 0
0.480000 0.100000 0
0.500000 0.100000 0
0.520000 0.100000 0
0.540000 0.100000 0
0.560000 0.100000 0
0.580000 0.100000 0
0.600000 0.100000 0
0.620000 0.100000 0
0.640000 0.100000 0
0.660000 0.100000 0
0.680000 0.100000 0
0.700000 0.100000 0
0.720000 0.100000 0
0.740000 0.100000 0
0.760000 0.100000 0
0.780000 0.100000 0
0.800000 0.100000 0
0.820000 0.100000 0
0.840000 0.100000 0
0.860000 0.100000 0
0.880000 0.100000 0
0.900000 0.100000 0
0.920000 0.100000 0
0.940000 0.100000 0
0.960000 0.100000 0
0.980000 0.100000 0
1.000000 0.100000 0
0.000000 0.120000 0
0.020000 0.120000 0
0.040000 0.120000 0
0.060000 0.120000 0
0.080000 0.120000 0
0.100000 0.120000 0
0.120000 0.120000 0
0.140000 0.120000 0
0.160000 0.120000 0
0.180000 0.120000 0
0.200000 0.120000 0
0.220000 0.120000 0
0.240000 0.120000 0
0.260000 0.120000 0
0.280000 0.120000 0
0.300000 0.120000 0
0.320000 0.120000 0
0.340000 0.120000 0
0.360000 0.120000 0
0.380000 0.120000 0
0.400000 0.120000 0
0.420000 0.120000 0
0.440000 0.120000 0
0.460000 0.120000 0
0.480000 0.120000 0
0.500000 0.120000 0
0.520000 0.120000 0
0.540000 0.120000 0
0.560000 0.120000 0
0.580000 0.120000 0
0.600000 0.120000 0
0.620000 0.120000 0
0.640000 0.120000 0
0.660000 0.120000 0
0.680000 0.120000 0
0.700000 0.120000 0
0.720000 0.120000 0
0.740000 0.120000 0
0.760000 0.120000 0
0.780000 0.120000 0
0.800000 0.120000 0
0.820000 0.120000 0
0.840000 0.120000 0
0.860000 0.120000 0
0.880000 0.120000 0
0.900000 0.120000 0
0.920000 0.120000 0
0.940000 0.120000 0
0.960000 0.120000 0
0.980000 0.120000 0
1.000000 0.120000 0
0.000000 0.140000 0
0.020000 0.140000 0
0.040000 0.140000 0
0.060000 0.140000 0
0.080000 0.140000 0
0.100000 0.140000 0
0.120000 0.140000 0
0.140000 0.140000 0
0.160000 0.140000 0
0.180000 0.140000 0
0.200000 0.140000 0
0.220000 0.140000 0
0.240000 0.140000 0
0.260000 0.140000 0
0.280000 0.140000 0
0.300000 0.140000 0
0.320000 0.140000 0
0.340000 0.140000 0
0.360000 0.140000 0
0.380000 0.140000 0
0.400000 0.140000 0
0.420000 0.140000 0
0.440000 0.140000 0
0.460000 0.140000 0
0.480000 0.140000 0
0.500000 0.140000 0
0.520000 0.140000 0
0.540000 0.140000 0
0.560000 0.140000 0
0.580000 0.140000 0
0.600000 0.140000 0
0.620000 0.140000 0
0.640000 0.140000 0
0.660000 0.140000 0
0.680000 0.140000 0
0.700000 0.140000 0
0.720000 0.140000 0
0.740000 0.140000 0
0.760000 0.140000 0
0.780000 0.140000 0
0.800000 0.140000 0
0.820000 0.140000 0
0.840000 0.140000 0
0.860000 0.140000 0
0.880000 0.140000 0
0.900000 0.140000 0
0.920000 0.140000 0
0.940000 0.140000 0
0.960000 0.140000 0
0.980000 0.140000 0
1.000000 0.140000 0
0.000000 0.160000 0
0.020000 0.160000 0
0.040000 0.160000 0
0.060000 0.160000 0
0.080000 0.160000 0
0.100000 0.160000 0
0.120000 0.160000 0
0.140000 0.160000 0
0.160000 0.160000 0
0.180000 0.160000 0
0.200000 0.160000 0
0.220000 0.160000 0
0.240000 0.160000 0
0.260000 0.160000 0
0.280000 0.160000 0
0.300000 0.160000 0
0.320000 0.160000 0
0.340000 0.160000 0
0.360000 0.160000 0
0.380000 0.160000 0
0.400000 0.160000 0
0.420000 0.160000 0
0.440000 0.160000 0
0.460000 0.160000 0
0.480000 0.160000 0
0.500000 0.160000 0
0.520000 0.160000 0
0.540000 0.160000 0
0.560000 0.160000 0
0.580000 0.160000 0
0.600000 0.160000 0
0.620000 0.160000 0
0.640000 0.160000 0
0.660000 0.160000 0
0.680000 0.160000 0
0.700000 0.160000 0
0.720000 0.160000 0
0.740000 0.160000 0
0.760000 0.160000 0
0.780000 0.160000 0
0.800000 0.160000 0
0.820000 0.160000 0
0.840000 0.160000 0
0.860000 0.160000 0
0.880000 0.160000 0
0.900000 0.160000 0
0.920000 0.160000 0
0.940000 0.160000 0
0.960000 0.160000 0
0.980000 0.160000 0
1.000000 0.160000 0
0.000000 0.180000 0
0.020000 0.180000 0
0.040000 0.180000 0
0.060000 0.180000 0
0.080000 0.180000 0
0.100000 0.180000 0
0.120000 0.180000 0
0.140000 0.180000 0
0.160000 0.180000 0
0.180000 0.180000 0
0.200000 0.180000 0
0.220000 0.180000 0
0.240000 0.180000 0
0.260000 0.180000 0
0.280000 0.180000 0
0.300000 0.180000 0
0.320000 0.180000 0
0.340000 0.180000 0
0.360000 0.180000 0
0.380000 0.180000 0
0.400000 0.180000 0
0.420000 0.180000 0
0.440000 0.180000 0
0.460000 0.180000 0
0.480000 0.180000 0
0.500000 0.180000 0
0.520000 0.180000 0
0.540000 0.180000 0
0.560000 0.180000 0
0.580000 0.180000 0
0.600000 0.180000 0
0.620000 0.180000 0
[...]
POINT_DATA 2601 

VECTORS velocity float
0.000000 0.000000 0
0.000001 0.000000 0
0.000001 0.000000 0
0.000000 0.000000 0
-0.000000 0.000000 0
-0.000001 0.000000 0
-0.000001 0.000000 0
-0.000000 0.000000 0
-0.000000 0.000000 0
0.000000 0.000000 0
0.000000 0.000000 0
0.000000 0.000000 0
0.000000 0.000000 0
-0.000000 0.000000 0
-0.000000 0.000000 0
-0.000000 0.000000 0
-0.000000 0.000000 0
-0.000000 0.000000 0
-0.000000 0.000000 0
-0.000000 0.000000 0
0.000000 0.000000 0
0.000000 0.000000 0
0.000000 0.000000 0
0.000000 0.000000 0
-0.000000 0.000000 0
-0.000000 0.000000 0
-0.000000 0.000000 0
-0.000000 0.000000 0
-0.000000 0.000000 0
-0.000000 0.000000 0
-0.000000 0.000000 0
-0.000000 0.000000 0
-0.000000 0.000000 0
-0.000000 0.000000 0
-0.000000 0.000000 0
-0.000000 0.000000 0
-0.000000 0.000000 0
-0.000000 0.000000 0
-0.000000 0.000000 0
-0.000000 0.000000 0
0.000000 0.000000 0
0.000000 0.000000 0
0.000000 0.000000 0
0.000000 0.000000 0
0.000000 0.000000 0
0.000000 0.000000 0
0.000000 0.000000 0
0.000000 0.000000 0
0.000000 0.000000 0
0.000000 0.000000 0
0.000000 0.000000 0
0.000000 0.000001 0
0.000060 -0.000059 0
0.000081 -0.000022 0
-0.000015 0.000055 0
-0.000256 0.000143 0
-0.000645 0.000226 0
-0.001168 0.000300 0
-0.001809 0.000361 0
-0.002547 0.000410 0
-0.003362 0.000447 0
-0.004235 0.000474 0
-0.005148 0.000491 0
-0.006085 0.000500 0
-0.007031 0.000501 0
-0.007972 0.000496 0
-0.008894 0.000484 0
-0.009787 0.000465 0
-0.010636 0.000440 0
-0.011430 0.000408 0
-0.012156 0.000370 0
-0.012802 0.000325 0
-0.013355 0.000273 0
-0.013804 0.000215 0
-0.014139 0.000151 0
-0.014348 0.000082 0
-0.014425 0.000009 0
-0.014362 -0.000068 0
-0.014156 -0.000146 0
-0.013806 -0.000223 0
-0.013315 -0.000299 0
-0.012689 -0.000371 0
-0.011937 -0.000437 0
-0.011073 -0.000494 0
-0.010113 -0.000541 0
-0.009078 -0.000576 0
-0.007991 -0.000598 0
-0.006877 -0.000604 0
-0.005763 -0.000596 0
-0.004677 -0.000572 0
-0.003645 -0.000533 0
-0.002694 -0.000480 0
-0.001847 -0.000414 0
-0.001125 -0.000338 0
-0.000542 -0.000255 0
-0.000110 -0.000167 0
0.000169 -0.000080 0
0.000301 0.000001 0
0.000303 0.000066 0
0.000211 0.000099 0
0.000082 0.000082 0
0.000000 -0.000000 0
0.000000 0.000001 0
0.000024 -0.000080 0
-0.000076 0.000075 0
-0.000386 0.000336 0
-0.000942 0.000628 0
-0.001748 0.000911 0
-0.002787 0.001165 0
-0.004029 0.001380 0
-0.005444 0.001554 0
-0.006996 0.001688 0
-0.008651 0.001786 0
-0.010379 0.001850 0
-0.012150 0.001882 0
-0.013935 0.001886 0
-0.015708 0.001863 0
-0.017445 0.001815 0
-0.019122 0.001741 0
-0.020714 0.001643 0
-0.022198 0.001520 0
-0.023551 0.001372 0
-0.024750 0.001199 0
-0.025772 0.001003 0
-0.026598 0.000784 0
-0.027206 0.000544 0
-0.027580 0.000286 0
-0.027707 0.000014 0
-0.027575 -0.000269 0
-0.027178 -0.000555 0
-0.026518 -0.000840 0
-0.025598 -0.001117 0
-0.024431 -0.001378 0
-0.023034 -0.001616 0
-0.021432 -0.001824 0
-0.019657 -0.001995 0
-0.017743 -0.002122 0
-0.015733 -0.002201 0
-0.013672 -0.002228 0
-0.011608 -0.002200 0
-0.009589 -0.002118 0
-0.007663 -0.001983 0
-0.005877 -0.001798 0
-0.004272 -0.001570 0
-0.002883 -0.001305 0
-0.001737 -0.001015 0
-0.000853 -0.000711 0
-0.000235 -0.000411 0
0.000128 -0.000134 0
0.000265 0.000089 0
0.000229 0.000222 0
0.000102 0.000211 0
0.000000 0.000000 0
0.000000 0.000000 0
-0.000057 0.000017 0
-0.000349 0.000386 0
-0.000946 0.000921 0
-0.001872 0.001505 0
-0.003126 0.002071 0
-0.004684 0.002582 0
-0.006510 0.003019 0
-0.008563 0.003377 0
-0.010799 0.003655 0
-0.013173 0.003857 0
-0.015643 0.003989 0
-0.018167 0.004055 0
-0.020708 0.004060 0
-0.023228 0.004006 0
-0.025693 0.003897 0
-0.028067 0.003734 0
-0.030317 0.003516 0
-0.032409 0.003245 0
-0.034312 0.002922 0
-0.035993 0.002546 0
-0.037422 0.002121 0
-0.038570 0.001649 0
-0.039411 0.001134 0
-0.039921 0.000583 0
-0.040084 0.000003 0
-0.039885 -0.000596 0
-0.039318 -0.001202 0
-0.038383 -0.001804 0
-0.037089 -0.002386 0
-0.035452 -0.002935 0
-0.033497 -0.003435 0
-0.031259 -0.003871 0
-0.028779 -0.004230 0
-0.026106 -0.004499 0
-0.023296 -0.004668 0
-0.020411 -0.004730 0
-0.017514 -0.004679 0
-0.014671 -0.004517 0
-0.011947 -0.004245 0
-0.009404 -0.003872 0
-0.007097 -0.003409 0
-0.005075 -0.002873 0
-0.003373 -0.002284 0
-0.002017 -0.001669 0
-0.001012 -0.001061 0
-0.000348 -0.000499 0
0.000009 -0.000036 0
0.000121 0.000262 0
0.000076 0.000311 0
0.000000 0.000000 0
0.000000 -0.000000 0
-0.000153 0.000269 0
-0.000675 0.000963 0
-0.001597 0.001859 0
-0.002929 0.002809 0
-0.004653 0.003724 0
-0.006737 0.004550 0
-0.009138 0.005260 0
-0.011807 0.005843 0
-0.014690 0.006298 0
-0.017736 0.006629 0
-0.020893 0.006843 0
-0.024111 0.006947 0
-0.027342 0.006947 0
-0.030542 0.006848 0
-0.033666 0.006654 0
-0.036670 0.006366 0
-0.039512 0.005986 0
-0.042151 0.005516 0
-0.044546 0.004956 0
-0.046657 0.004309 0
-0.048448 0.003579 0
-0.049883 0.002772 0
-0.050930 0.001895 0
-0.051562 0.000959 0
-0.051758 -0.000023 0
-0.051502 -0.001035 0
-0.050788 -0.002057 0
-0.049616 -0.003069 0
-0.047996 -0.004048 0
-0.045951 -0.004970 0
-0.043510 -0.005809 0
-0.040715 -0.006543 0
-0.037616 -0.007148 0
-0.034273 -0.007605 0
-0.030754 -0.007896 0
-0.027133 -0.008010 0
-0.023486 -0.007940 0
-0.019894 -0.007684 0
-0.016434 -0.007250 0
-0.013182 -0.006648 0
-0.010207 -0.005899 0
-0.007565 -0.005029 0
-0.005304 -0.004073 0
-0.003454 -0.003072 0
-0.002026 -0.002079 0
-0.001011 -0.001156 0
-0.000376 -0.000380 0
-0.000060 0.000156 0
0.000025 0.000332 0
0.000000 0.000000 0
0.000000 -0.000000 0
-0.000254 0.000690 0
-0.001017 0.001830 0
-0.002285 0.003176 0
-0.004040 0.004562 0
-0.006247 0.005881 0
-0.008862 0.007068 0
-0.011832 0.008089 0
-0.015100 0.008928 0
-0.018604 0.009583 0
-0.022287 0.010059 0
-0.026090 0.010363 0
-0.029955 0.010505 0
-0.033828 0.010492 0
-0.037655 0.010330 0
-0.041385 0.010025 0
-0.044968 0.009580 0
-0.048353 0.008997 0
-0.051492 0.008279 0
-0.054338 0.007428 0
-0.056845 0.006448 0
-0.058969 0.005346 0
-0.060670 0.004131 0
-0.061912 0.002813 0
-0.062664 0.001411 0
-0.062901 -0.000057 0
-0.062607 -0.001566 0
-0.061772 -0.003089 0
-0.060400 -0.004595 0
-0.058502 -0.006051 0
-0.056102 -0.007422 0
-0.053234 -0.008671 0
-0.049946 -0.009766 0
-0.046296 -0.010672 0
-0.042350 -0.011361 0
-0.038187 -0.011809 0
-0.033891 -0.011998 0
-0.029549 -0.011918 0
-0.025253 -0.011568 0
-0.021095 -0.010956 0
-0.017160 -0.010099 0
-0.013528 -0.009026 0
-0.010268 -0.007775 0
-0.007437 -0.006395 0
-0.005071 -0.004947 0
-0.003189 -0.003503 0
-0.001786 -0.002149 0
-0.000834 -0.000987 0
-0.000278 -0.000138 0
-0.000036 0.000251 0
0.000000 0.000000 0
0.000000 -0.000001 0
-0.000352 0.001284 0
-0.001359 0.002995 0
-0.002978 0.004883 0
-0.005162 0.006772 0
-0.007856 0.008547 0
-0.011001 0.010135 0
-0.014533 0.011497 0
-0.018385 0.012614 0
-0.022491 0.013485 0
-0.026784 0.014114 0
-0.031200 0.014511 0
-0.035677 0.014686 0
-0.040152 0.014648 0
-0.044568 0.014406 0
-0.048865 0.013967 0
-0.052988 0.013333 0
-0.056881 0.012510 0
-0.060488 0.011500 0
-0.063758 0.010308 0
-0.066639 0.008940 0
-0.069082 0.007405 0
-0.071042 0.005715 0
-0.072480 0.003889 0
-0.073361 0.001948 0
-0.073656 -0.000080 0
-0.073348 -0.002163 0
-0.072427 -0.004264 0
-0.070894 -0.006340 0
-0.068762 -0.008347 0
-0.066056 -0.010238 0
-0.062814 -0.011965 0
-0.059087 -0.013482 0
-0.054937 -0.014744 0
-0.050439 -0.015713 0
-0.045678 -0.016356 0
-0.040746 -0.016648 0
-0.035743 -0.016577 0
-0.030769 -0.016139 0
-0.025928 -0.015344 0
-0.021316 -0.014215 0
-0.017026 -0.012790 0
-0.013138 -0.011120 0
-0.009717 -0.009271 0
-0.006811 -0.007320 0
-0.004447 -0.005363 0
-0.002628 -0.003510 0
-0.001332 -0.001888 0
-0.000514 -0.000642 0
-0.000101 0.000054 0
0.000000 0.000000 0
0.000000 -0.000000 0
-0.000446 0.002048 0
-0.001692 0.004457 0
-0.003659 0.006980 0
-0.006269 0.009441 0
-0.009447 0.011720 0
-0.013116 0.013744 0
-0.017200 0.015472 0
-0.021623 0.016885 0
-0.026311 0.017982 0
-0.031192 0.018768 0
-0.036196 0.019256 0
-0.041255 0.019457 0
-0.046303 0.019383 0
-0.051277 0.019043 0
-0.056113 0.018446 0
-0.060749 0.017595 0
-0.065124 0.016497 0
-0.069181 0.015156 0
-0.072860 0.013578 0
-0.076105 0.011772 0
-0.078865 0.009750 0
-0.081089 0.007529 0
-0.082735 0.005132 0
-0.083762 0.002587 0
-0.084143 -0.000069 0
-0.083853 -0.002795 0
-0.082883 -0.005543 0
-0.081231 -0.008260 0
-0.078911 -0.010889 0
-0.075947 -0.013370 0
-0.072378 -0.015641 0
-0.068257 -0.017643 0
-0.063651 -0.019319 0
-0.058639 -0.020620 0
-0.053311 -0.021502 0
-0.047770 -0.021933 0
-0.042121 -0.021895 0
-0.036478 -0.021384 0
-0.030954 -0.020409 0
-0.025659 -0.019001 0
-0.020696 -0.017204 0
-0.016158 -0.015084 0
-0.012122 -0.012722 0
-0.008648 -0.010218 0
-0.005774 -0.007687 0
-0.003513 -0.005264 0
-0.001853 -0.003101 0
-0.000757 -0.001370 0
-0.000166 -0.000264 0
0.000000 0.000000 0
0.000000 -0.000000 0
-0.000536 0.002977 0
-0.002013 0.006209 0
-0.004319 0.009461 0
-0.007346 0.012561 0
-0.010998 0.015393 0
-0.015180 0.017887 0
-0.019802 0.020003 0
-0.024781 0.021725 0
-0.030033 0.023054 0
-0.035482 0.024000 0
-0.041052 0.024574 0
-0.046670 0.024794 0
-0.052268 0.024670 0
-0.057776 0.024215 0
-0.063129 0.023438 0
-0.068259 0.022345 0
-0.073103 0.020942 0
-0.077598 0.019235 0
-0.081681 0.017233 0
-0.085293 0.014945 0
-0.088377 0.012389 0
-0.090879 0.009585 0
-0.092753 0.006562 0
-0.093956 0.003356 0
-0.094454 0.000011 0
-0.094222 -0.003423 0
-0.093246 -0.006885 0
-0.091522 -0.010312 0
-0.089060 -0.013632 0
-0.085885 -0.016771 0
-0.082035 -0.019655 0
-0.077563 -0.022208 0
-0.072537 -0.024362 0
-0.067041 -0.026052 0
-0.061171 -0.027225 0
-0.055034 -0.027839 0
-0.048746 -0.027868 0
-0.042430 -0.027306 0
-0.036211 -0.026163 0
-0.030212 -0.024473 0
-0.024551 -0.022291 0
-0.019333 -0.019694 0
-0.014651 -0.016780 0
-0.010578 -0.013668 0
-0.007163 -0.010499 0
-0.004434 -0.007432 0
-0.002390 -0.004643 0
-0.001005 -0.002329 0
-0.000231 -0.000704 0
0.000000 0.000000 0
0.000000 0.000000 0
-0.000621 0.004062 0
-0.002320 0.008241 0
-0.004952 0.012313 0
-0.008383 0.016120 0
-0.012493 0.019553 0
-0.017173 0.022548 0
-0.022318 0.025073 0
-0.027834 0.027116 0
-0.033632 0.028683 0
-0.039629 0.029787 0
-0.045744 0.030445 0
-0.051902 0.030674 0
-0.058030 0.030489 0
-0.064055 0.029904 0
-0.069908 0.028928 0
-0.075521 0.027570 0
-0.080826 0.025836 0
-0.085756 0.023734 0
-0.090246 0.021273 0
-0.094233 0.018468 0
-0.097656 0.015337 0
-0.100460 0.011905 0
-0.102591 0.008208 0
-0.104004 0.004288 0
-0.104661 0.000197 0
-0.104532 -0.004003 0
-0.103598 -0.008243 0
-0.101852 -0.012446 0
-0.099301 -0.016526 0
-0.095964 -0.020395 0
-0.091879 -0.023963 0
-0.087097 -0.027140 0
-0.081687 -0.029841 0
-0.075734 -0.031986 0
-0.069338 -0.033510 0
-0.062613 -0.034359 0
-0.055684 -0.034499 0
-0.048683 -0.033918 0
-0.041749 -0.032627 0
-0.035018 -0.030661 0
-0.028624 -0.028083 0
-0.022689 -0.024984 0
-0.017321 -0.021478 0
-0.012610 -0.017706 0
-0.008620 -0.013831 0
-0.005394 -0.010037 0
-0.002945 -0.006529 0
-0.001258 -0.003528 0
-0.000296 -0.001269 0
0.000000 0.000000 0
0.000000 0.000000 0
-0.000701 0.005297 0
-0.002611 0.010540 0
-0.005554 0.015523 0
-0.009372 0.020102 0
-0.013923 0.024182 0
-0.019080 0.027711 0
-0.024729 0.030664 0
-0.030763 0.033040 0
-0.037087 0.034849 0
-0.043611 0.036112 0
-0.050252 0.036848 0
-0.056930 0.037079 0
-0.063569 0.036822 0
-0.070097 0.036094 0
-0.076439 0.034904 0
-0.082527 0.033263 0
-0.088289 0.031177 0
-0.093657 0.028655 0
-0.098562 0.025710 0
-0.102939 0.022356 0
-0.106725 0.018616 0
-0.109857 0.014519 0
-0.112281 0.010106 0
-0.113945 0.005426 0
-0.114807 0.000538 0
-0.114832 -0.004486 0
-0.113995 -0.009565 0
-0.112283 -0.014609 0
-0.109698 -0.019519 0
-0.106253 -0.024193 0
-0.101983 -0.028522 0
-0.096934 -0.032400 0
-0.091176 -0.035725 0
-0.084793 -0.038401 0
-0.077888 -0.040346 0
-0.070581 -0.041493 0
-0.063004 -0.041798 0
-0.055301 -0.041241 0
-0.047625 -0.039828 0
-0.040127 -0.037598 0
-0.032958 -0.034621 0
-0.026260 -0.030997 0
-0.020160 -0.026859 0
-0.014766 -0.022369 0
-0.010162 -0.017714 0
-0.006405 -0.013107 0
-0.003525 -0.008779 0
-0.001520 -0.004977 0
-0.000362 -0.001962 0
0.000000 -0.000000 0
0.000000 0.000000 0
-0.000777 0.006674 0
-0.002886 0.013093 0
-0.006123 0.019073 0
-0.010307 0.024488 0
-0.015277 0.029261 0
-0.020890 0.033354 0
-0.027019 0.036755 0
-0.033548 0.039475 0
-0.040375 0.041532 0
-0.047405 0.042952 0
-0.054550 0.043764 0
-0.061730 0.043991 0
-0.068865 0.043655 0
-0.075880 0.042773 0
-0.082703 0.041358 0
-0.089259 0.039419 0
-0.095478 0.036966 0
-0.101289 0.034007 0
-0.106623 0.030556 0
-0.111409 0.026630 0
-0.115581 0.022254 0
-0.119076 0.017462 0
-0.121832 0.012297 0
-0.123794 0.006815 0
-0.124914 0.001084 0
-0.125149 -0.004815 0
-0.124468 -0.010792 0
-0.122851 -0.016743 0
-0.120292 -0.022556 0
-0.116799 -0.028110 0
-0.112397 -0.033282 0
-0.107131 -0.037947 0
-0.101064 -0.041982 0
-0.094281 -0.045274 0
-0.086886 -0.047722 0
-0.079002 -0.049243 0
-0.070771 -0.049778 0
-0.062348 -0.049297 0
-0.053899 -0.047801 0
-0.045594 -0.045327 0
-0.037604 -0.041950 0
-0.030091 -0.037782 0
-0.023205 -0.032972 0
-0.017076 -0.027704 0
-0.011810 -0.022191 0
-0.007483 -0.016674 0
-0.004141 -0.011415 0
-0.001796 -0.006691 0
-0.000431 -0.002789 0
0.000000 -0.000000 0
0.000000 0.000000 0
-0.000848 0.008184 0
-0.003143 0.015885 0
-0.006655 0.022944 0
-0.011184 0.029256 0
-0.016548 0.034765 0
-0.022591 0.039452 0
-0.029173 0.043322 0
-0.036172 0.046396 0
-0.043476 0.048706 0
-0.050988 0.050287 0
-0.058616 0.051173 0
-0.066277 0.051393 0
-0.073890 0.050973 0
-0.081379 0.049931 0
-0.088671 0.048283 0
-0.095691 0.046038 0
-0.102368 0.043207 0
-0.108630 0.039800 0
-0.114404 0.035829 0
-0.119619 0.031315 0
-0.124207 0.026283 0
-0.128099 0.020770 0
-0.131230 0.014825 0
-0.133539 0.008507 0
-0.134971 0.001892 0
-0.135476 -0.004932 0
-0.135016 -0.011862 0
-0.133561 -0.018785 0
-0.131095 -0.025572 0
-0.127619 -0.032088 0
-0.123147 -0.038190 0
-0.117719 -0.043733 0
-0.111390 -0.048575 0
-0.104243 -0.052579 0
-0.096382 -0.055625 0
-0.087933 -0.057608 0
-0.079045 -0.058452 0
-0.069884 -0.058113 0
-0.060632 -0.056582 0
-0.051478 -0.053893 0
-0.042614 -0.050124 0
-0.034229 -0.045396 0
-0.026497 -0.039874 0
-0.019575 -0.033764 0
-0.013592 -0.027307 0
-0.008646 -0.020776 0
-0.004804 -0.014466 0
-0.002093 -0.008687 0
-0.000505 -0.003758 0
0.000000 -0.000000 0
0.000000 0.000000 0
-0.000914 0.009817 0
-0.003380 0.018900 0
-0.007148 0.027113 0
-0.011996 0.034380 0
-0.017727 0.040668 0
-0.024171 0.045979 0
-0.031178 0.050336 0
-0.038616 0.053778 0
-0.046370 0.056348 0
-0.054336 0.058092 0
-0.062422 0.059053 0
-0.070541 0.059265 0
-0.078613 0.058758 0
-0.086560 0.057555 0
-0.094310 0.055670 0
-0.101788 0.053117 0
-0.108922 0.049904 0
-0.115639 0.046043 0
-0.121866 0.041546 0
-0.127531 0.036434 0
-0.132561 0.030734 0
-0.136886 0.024484 0
-0.140434 0.017737 0
-0.143141 0.010556 0
-0.144942 0.003022 0
-0.145781 -0.004770 0
-0.145610 -0.012708 0
-0.144388 -0.020664 0
-0.142088 -0.028498 0
-0.138700 -0.036058 0
-0.134229 -0.043182 0
-0.128702 -0.049704 0
-0.122168 -0.055457 0
-0.114704 -0.060283 0
-0.106409 -0.064032 0
-0.097414 -0.066580 0
-0.087872 -0.067827 0
-0.077961 -0.067710 0
-0.067878 -0.066207 0
-0.057834 -0.063345 0
-0.048045 -0.059199 0
-0.038726 -0.053899 0
-0.030083 -0.047627 0
-0.022300 -0.040610 0
-0.015536 -0.033119 0
-0.009917 -0.025462 0
-0.005528 -0.017968 0
-0.002417 -0.010989 0
-0.000586 -0.004882 0
0.000000 -0.000000 0
0.000000 0.000000 0
-0.000974 0.011564 0
-0.003597 0.022119 0
-0.007598 0.031559 0
-0.012738 0.039835 0
-0.018806 0.046941 0
-0.025619 0.052903 0
-0.033017 0.057767 0
-0.040863 0.061588 0
-0.049034 0.064427 0
-0.057425 0.066339 0
-0.065939 0.067377 0
-0.074490 0.067584 0
-0.082998 0.066992 0
-0.091385 0.065629 0
-0.099577 0.063510 0
-0.107503 0.060650 0
-0.115089 0.057058 0
-0.122264 0.052744 0
-0.128953 0.047722 0
-0.135084 0.042010 0
-0.140582 0.035638 0
-0.145371 0.028643 0
-0.149379 0.021080 0
-0.152532 0.013015 0
-0.154760 0.004533 0
-0.155997 -0.004264 0
-0.156184 -0.013256 0
-0.155271 -0.022306 0
-0.153216 -0.031259 0
-0.149996 -0.039947 0
-0.145604 -0.048188 0
-0.140053 -0.055794 0
-0.133382 -0.062573 0
-0.125657 -0.068338 0
-0.116976 -0.072914 0
-0.107466 -0.076145 0
-0.097284 -0.077905 0
-0.086620 -0.078107 0
-0.075685 -0.076710 0
-0.064713 -0.073727 0
-0.053946 -0.069232 0
-0.043630 -0.063358 0
-0.034005 -0.056300 0
-0.025289 -0.048310 0
-0.017674 -0.039690 0
-0.011316 -0.030784 0
-0.006328 -0.021966 0
-0.002774 -0.013629 0
-0.000675 -0.006175 0
0.000000 -0.000000 0
0.000000 -0.000000 0
-0.001028 0.013414 0
-0.003791 0.025524 0
-0.008001 0.036254 0
-0.013404 0.045588 0
-0.019776 0.053550 0
-0.026922 0.060191 0
-0.034676 0.065580 0
-0.042892 0.069794 0
-0.051446 0.072910 0
-0.060226 0.074997 0
-0.069136 0.076118 0
-0.078090 0.076323 0
-0.087005 0.075653 0
-0.095807 0.074134 0
-0.104423 0.071789 0
-0.112781 0.068629 0
-0.120811 0.064665 0
-0.128440 0.059907 0
-0.135595 0.054366 0
-0.142203 0.048062 0
-0.148186 0.041021 0
-0.153469 0.033282 0
-0.157971 0.024897 0
-0.161616 0.015937 0
-0.164325 0.006487 0
-0.166024 -0.003345 0
-0.166641 -0.013434 0
-0.166113 -0.023632 0
-0.164387 -0.033773 0
-0.161422 -0.043671 0
-0.157196 -0.053126 0
-0.151707 -0.061926 0
-0.144979 -0.069853 0
-0.137068 -0.076688 0
-0.128061 -0.082224 0
-0.118082 -0.086272 0
-0.107290 -0.088673 0
-0.095882 -0.089309 0
-0.084085 -0.088115 0
-0.072154 -0.085084 0
-0.060362 -0.080281 0
-0.048988 -0.073840 0
-0.038307 -0.065968 0
-0.028580 -0.056940 0
-0.020037 -0.047092 0
-0.012868 -0.036808 0
-0.007216 -0.026510 0
-0.003174 -0.016642 0
-0.000775 -0.007656 0
0.000000 -0.000000 0
0.000000 -0.000000 0
-0.001075 0.015354 0
-0.003960 0.029093 0
-0.008354 0.041172 0
-0.013988 0.051609 0
-0.020628 0.060459 0
-0.028070 0.067804 0
-0.036139 0.073737 0
-0.044686 0.078358 0
-0.053581 0.081760 0
-0.062712 0.084030 0
-0.071981 0.085241 0
-0.081301 0.085453 0
-0.090592 0.084710 0
-0.099779 0.083047 0
-0.108792 0.080485 0
-0.117561 0.077038 0
-0.126017 0.072716 0
-0.134089 0.067528 0
-0.141705 0.061484 0
-0.148793 0.054601 0
-0.155273 0.046903 0
-0.161068 0.038428 0
-0.166095 0.029227 0
-0.170271 0.019369 0
-0.173510 0.008941 0
-0.175729 -0.001948 0
-0.176845 -0.013167 0
-0.176781 -0.024560 0
-0.175469 -0.035950 0
-0.172851 -0.047138 0
-0.168887 -0.057904 0
-0.163558 -0.068011 0
-0.156869 -0.077212 0
-0.148861 -0.085256 0
-0.139607 -0.091900 0
-0.129225 -0.096916 0
-0.117870 -0.100105 0
-0.105746 -0.101311 0
-0.093092 -0.100437 0
-0.080185 -0.097451 0
-0.067327 -0.092399 0
-0.054836 -0.085412 0
-0.043029 -0.076707 0
-0.032209 -0.066581 0
-0.022653 -0.055403 0
-0.014593 -0.043605 0
-0.008209 -0.031660 0
-0.003622 -0.020071 0
-0.000888 -0.009348 0
0.000000 -0.000000 0
0.000000 -0.000000 0
-0.001114 0.017373 0
-0.004103 0.032803 0
-0.008653 0.046283 0
-0.014484 0.057862 0
-0.021354 0.067632 0
-0.029050 0.075702 0
-0.037392 0.082196 0
-0.046225 0.087236 0
-0.055418 0.090936 0
-0.064856 0.093397 0
-0.074441 0.094707 0
-0.084085 0.094934 0
-0.093712 0.094131 0
-0.103247 0.092334 0
-0.112623 0.089570 0
-0.121772 0.085853 0
-0.130628 0.081193 0
-0.139122 0.075596 0
-0.147186 0.069070 0
-0.154745 0.061630 0
-0.161723 0.053296 0
-0.168040 0.044103 0
-0.173610 0.034100 0
-0.178345 0.023351 0
-0.182155 0.011945 0
-0.184946 -0.000011 0
-0.186624 -0.012382 0
-0.187100 -0.025008 0
-0.186289 -0.037702 0
-0.184115 -0.050252 0
-0.180517 -0.062420 0
-0.175456 -0.073944 0
-0.168917 -0.084549 0
-0.160918 -0.093950 0
-0.151519 -0.101860 0
-0.140820 -0.108009 0
-0.128974 -0.112152 0
-0.116182 -0.114088 0
-0.102696 -0.113675 0
-0.088812 -0.110849 0
-0.074863 -0.105630 0
-0.061204 -0.098139 0
-0.048201 -0.088595 0
-0.036208 -0.077316 0
-0.025551 -0.064708 0
-0.016514 -0.051252 0
-0.009320 -0.037481 0
-0.004126 -0.023963 0
-0.001016 -0.011278 0
0.000000 -0.000000 0
0.000000 -0.000000 0
-0.001145 0.019457 0
-0.004219 0.036632 0
-0.008895 0.051554 0
-0.014888 0.064310 0
-0.021945 0.075025 0
-0.029851 0.083842 0
-0.038419 0.090913 0
-0.047491 0.096384 0
-0.056933 0.100391 0
-0.066629 0.103053 0
-0.076481 0.104471 0
-0.086403 0.104724 0
-0.096318 0.103872 0
-0.106156 0.101958 0