# vtk DataFile Version 2.0
generated by CFD-lab course output (written by Tobias Neckel) 
ASCII

DATASET STRUCTURED_GRID
DIMENSIONS  51 51 1 
POINTS 2601 float

0.000000 0.000000 0
0.020000 0.000000 0
0.040000 0.000000 0
0.060000 0.000000 0
0.080000 0.000000 0
0.100000 0.000000 0
0.120000 0.000000 0
0.140000 0.000000 0
0.160000 0.000000 0
0.180000 0.000000 0
0.200000 0.000000 0
0.220000 0.000000 0
0.240000 0.000000 0
0.260000 0.000000 0
0.280000 0.000000 0
0.300000 0.000000 0
0.320000 0.000000 0
0.340000 0.000000 0
0.360000 0.000000 0
0.380000 0.000000 0
0.400000 0.000000 0
0.420000 0.000000 0
0.440000 0.000000 0
0.460000 0.000000 0
0.480000 0.000000 0
0.500000 0.000000 0
0.520000 0.000000 0
0.540000 0.000000 0
0.560000 0.000000 0
0.580000 0.000000 0
0.600000 0.000000 0
0.620000 0.000000 0
0.640000 0.000000 0
0.660000 0.000000 0
0.680000 0.000000 0
0.700000 0.000000 0
0.720000 0.000000 0
0.740000 0.000000 0
0.760000 0.000000 0
0.780000 0.000000 0
0.800000 0.000000 0
0.820000 0.000000 0
0.840000 0.000000 0
0.860000 0.000000 0
0.880000 0.000000 0
0.900000 0.000000 0
0.920000 0.000000 0
0.940000 0.000000 0
0.960000 0.000000 0
0.980000 0.000000 0
1.000000 0.000000 0
0.000000 0.020000 0
0.020000 0.020000 0
0.040000 0.020000 0
0.060000 0.020000 0
0.080000 0.020000 0
0.100000 0.020000 0
0.120000 0.020000 0
0.140000 0.020000 0
0.160000 0.020000 0
0.180000 0.020000 0
0.200000 0.020000 0
0.220000 0.020000 0
0.240000 0.020000 0
0.260000 0.020000 0
0.280000 0.020000 0
0.300000 0.020000 0
0.320000 0.020000 0
0.340000 0.020000 0
0.360000 0.020000 0
0.380000 0.020000 0
0.400000 0.020000 0
0.420000 0.020000 0
0.440000 0.020000 0
0.460000 0.020000 0
0.480000 0.020000 0
0.500000 0.020000 0
0.520000 0.020000 0
0.540000 0.020000 0
0.560000 0.020000 0
0.580000 0.020000 0
0.600000 0.020000 0
0.620000 0.020000 0
0.640000 0.020000 0
0.660000 0.020000 0
0.680000 0.020000 0
0.700000 0.020000 0
0.720000 0.020000 0
0.740000 0.020000 0
0.760000 0.020000 0
0.780000 0.020000 0
0.800000 0.020000 0
0.820000 0.020000 0
0.840000 0.020000 0
0.860000 0.020000 0
0.880000 0.020000 0
0.900000 0.020000 0
0.920000 0.020000 0
0.940000 0.020000 0
0.960000 0.020000 0
0.980000 0.020000 0
1.000000 0.020000 0
0.000000 0.040000 0
0.020000 0.040000 0
0.040000 0.040000 0
0.060000 0.040000 0
0.080000 0.040000 0
0.100000 0.040000 0
0.120000 0.040000 0
0.140000 0.040000 0
0.160000 0.040000 0
0.180000 0.040000 0
0.200000 0.040000 0
0.220000 0.040000 0
0.240000 0.040000 0
0.260000 0.040000 0
0.280000 0.040000 0
0.300000 0.040000 0
0.320000 0.040000 0
0.340000 0.040000 0
0.360000 0.040000 0
0.380000 0.040000 0
0.400000 0.040000 0
0.420000 0.040000 0
0.440000 0.040000 0
0.460000 0.040000 0
0.480000 0.040000 0
0.500000 0.040000 0
0.520000 0.040000 0
0.540000 0.040000 0
0.560000 0.040000 0
0.580000 0.040000 0
0.600000 0.040000 0
0.620000 0.040000 0
0.640000 0.040000 0
0.660000 0.040000 0
0.680000 0.040000 0
0.700000 0.040000 0
0.720000 0.040000 0
0.740000 0.040000 0
0.760000 0.040000 0
0.780000 0.040000 0
0.800000 0.040000 0
0.820000 0.040000 0
0.840000 0.040000 0
0.860000 0.040000 0
0.880000 0.040000 0
0.900000 0.040000 0
0.920000 0.040000 0
0.940000 0.040000 0
0.960000 0.040000 0
0.980000 0.040000 0
1.000000 0.040000 0
0.000000 0.060000 0
0.020000 0.060000 0
0.040000 0.060000 0
0.060000 0.060000 0
0.080000 0.060000 0
0.100000 0.060000 0
0.120000 0.060000 0
0.140000 0.060000 0
0.160000 0.060000 0
0.180000 0.060000 0
0.200000 0.060000 0
0.220000 0.060000 0
0.240000 0.060000 0
0.260000 0.060000 0
0.280000 0.060000 0
0.300000 0.060000 0
0.320000 0.060000 0
0.340000 0.060000 0
0.360000 0.060000 0
0.380000 0.060000 0
0.400000 0.060000 0
0.420000 0.060000 0
0.440000 0.060000 0
0.460000 0.060000 0
0.480000 0.060000 0
0.500000 0.060000 0
0.520000 0.060000 0
0.540000 0.060000 0
0.560000 0.060000 0
0.580000 0.060000 0
0.600000 0.060000 0
0.620000 0.060000 0
0.640000 0.060000 0
0.660000 0.060000 0
0.680000 0.060000 0
0.700000 0.060000 0
0.720000 0.060000 0
0.740000 0.060000 0
0.760000 0.060000 0
0.780000 0.060000 0
0.800000 0.060000 0
0.820000 0.060000 0
0.840000 0.060000 0
0.860000 0.060000 0
0.880000 0.060000 0
0.900000 0.060000 0
0.920000 0.060000 0
0.940000 0.060000 0
0.960000 0.060000 0
0.980000 0.060000 0
1.000000 0.060000 0
0.000000 0.080000 0
0.020000 0.080000 0
0.040000 0.080000 0
0.060000 0.080000 0
0.080000 0.080000 0
0.100000 0.080000 0
0.120000 0.080000 0
0.140000 0.080000 0
0.160000 0.080000 0
0.180000 0.080000 0
0.200000 0.080000 0
0.220000 0.080000 0
0.240000 0.080000 0
0.260000 0.080000 0
0.280000 0.080000 0
0.300000 0.080000 0
0.320000 0.080000 0
0.340000 0.080000 0
0.360000 0.080000 0
0.380000 0.080000 0
0.400000 0.080000 0
0.420000 0.080000 0
0.440000 0.080000 0
0.460000 0.080000 0
0.480000 0.080000 0
0.500000 0.080000 0
0.520000 0.080000 0
0.540000 0.080000 0
0.560000 0.080000 0
0.580000 0.080000 0
0.600000 0.080000 0
0.620000 0.080000 0
0.640000 0.080000 0
0.660000 0.080000 0
0.680000 0.080000 0
0.700000 0.080000 0
0.720000 0.080000 0
0.740000 0.080000 0
0.760000 0.080000 0
0.780000 0.080000 0
0.800000 0.080000 0
0.820000 0.080000 0
0.840000 0.080000 0
0.860000 0.080000 0
0.880000 0.080000 0
0.900000 0.080000 0
0.920000 0.080000 0
0.940000 0.080000 0
0.960000 0.080000 0
0.980000 0.080000 0
1.000000 0.080000 0
0.000000 0.100000 0
0.020000 0.100000 0
0.040000 0.100000 0
0.060000 0.100000 0
0.080000 0.100000 0
0.100000 0.100000 0
0.120000 0.100000 0
0.140000 0.100000 0
0.160000 0.100000 0
0.180000 0.100000 0
0.200000 0.100000 0
0.220000 0.100000 0
0.240000 0.100000 0
0.260000 0.100000 0
0.280000 0.100000 0
0.300000 0.100000 0
0.320000 0.100000 0
0.340000 0.100000 0
0.360000 0.100000 0
0.380000 0.100000 0
0.400000 0.100000 0
0.420000 0.100000 0
0.440000 0.100000 0
0.460000 0.100000 0
0.480000 0.100000 0
0.500000 0.100000 0
0.520000 0.100000 0
0.540000 0.100000 0
0.560000 0.100000 0
0.580000 0.100000 0
0.600000 0.100000 0
0.620000 0.100000 0
0.640000 0.100000 0
0.660000 0.100000 0
0.680000 0.100000 0
0.700000 0.100000 0
0.720000 0.100000 0
0.740000 0.100000 0
0.760000 0.100000 0
0.780000 0.100000 0
0.800000 0.100000 0
0.820000 0.100000 0
0.840000 0.100000 0
0.860000 0.100000 0
0.880000 0.100000 0
0.900000 0.100000 0
0.920000 0.100000 0
0.940000 0.100000 0
0.960000 0.100000 0
0.980000 0.100000 0
1.000000 0.100000 0
0.000000 0.120000 0
0.020000 0.120000 0
0.040000 0.120000 0
0.060000 0.120000 0
0.080000 0.120000 0
0.100000 0.120000 0
0.120000 0.120000 0
0.140000 0.120000 0
0.160000 0.120000 0
0.180000 0.120000 0
0.200000 0.120000 0
0.220000 0.120000 0
0.240000 0.120000 0
0.260000 0.120000 0
0.280000 0.120000 0
0.300000 0.120000 0
0.320000 0.120000 0
0.340000 0.120000 0
0.360000 0.120000 0
0.380000 0.120000 0
0.400000 0.120000 0
0.420000 0.120000 0
0.440000 0.120000 0
0.460000 0.120000 0
0.480000 0.120000 0
0.500000 0.120000 0
0.520000 0.120000 0
0.540000 0.120000 0
0.560000 0.120000 0
0.580000 0.120000 0
0.600000 0.120000 0
0.620000 0.120000 0
0.640000 0.120000 0
0.660000 0.120000 0
0.680000 0.120000 0
0.700000 0.120000 0
0.720000 0.120000 0
0.740000 0.120000 0
0.760000 0.120000 0
0.780000 0.120000 0
0.800000 0.120000 0
0.820000 0.120000 0
0.840000 0.120000 0
0.860000 0.120000 0
0.880000 0.120000 0
0.900000 0.120000 0
0.920000 0.120000 0
0.940000 0.120000 0
0.960000 0.120000 0
0.980000 0.120000 0
1.000000 0.120000 0
0.000000 0.140000 0
0.020000 0.140000 0
0.040000 0.140000 0
0.060000 0.140000 0
0.080000 0.140000 0
0.100000 0.140000 0
0.120000 0.140000 0
0.140000 0.140000 0
0.160000 0.140000 0
0.180000 0.140000 0
0.200000 0.140000 0
0.220000 0.140000 0
0.240000 0.140000 0
0.260000 0.140000 0
0.280000 0.140000 0
0.300000 0.140000 0
0.320000 0.140000 0
0.340000 0.140000 0
0.360000 0.140000 0
0.380000 0.140000 0
0.400000 0.140000 0
0.420000 0.140000 0
0.440000 0.140000 0
0.460000 0.140000 0
0.480000 0.140000 0
0.500000 0.140000 0
0.520000 0.140000 0
0.540000 0.140000 0
0.560000 0.140000 0
0.580000 0.140000 0
0.600000 0.140000 0
0.620000 0.140000 0
0.640000 0.140000 0
0.660000 0.140000 0
0.680000 0.140000 0
0.700000 0.140000 0
0.720000 0.140000 0
0.740000 0.140000 0
0.760000 0.140000 0
0.780000 0.140000 0
0.800000 0.140000 0
0.820000 0.140000 0
0.840000 0.140000 0
0.860000 0.140000 0
0.880000 0.140000 0
0.900000 0.140000 0
0.920000 0.140000 0
0.940000 0.140000 0
0.960000 0.140000 0
0.980000 0.140000 0
1.000000 0.140000 0
0.000000 0.160000 0
0.020000 0.160000 0
0.040000 0.160000 0
0.060000 0.160000 0
0.080000 0.160000 0
0.100000 0.160000 0
0.120000 0.160000 0
0.140000 0.160000 0
0.160000 0.160000 0
0.180000 0.160000 0
0.200000 0.160000 0
0.220000 0.160000 0
0.240000 0.160000 0
0.260000 0.160000 0
0.280000 0.160000 0
0.300000 0.160000 0
0.320000 0.160000 0
0.340000 0.160000 0
0.360000 0.160000 0
0.380000 0.160000 0
0.400000 0.160000 0
0.420000 0.160000 0
0.440000 0.160000 0
0.460000 0.160000 0
0.480000 0.160000 0
0.500000 0.160000 0
0.520000 0.160000 0
0.540000 0.160000 0
0.560000 0.160000 0
0.580000 0.160000 0
0.600000 0.160000 0
0.620000 0.160000 0
0.640000 0.160000 0
0.660000 0.160000 0
0.680000 0.160000 0
0.700000 0.160000 0
0.720000 0.160000 0
0.740000 0.160000 0
0.760000 0.160000 0
0.780000 0.160000 0
0.800000 0.160000 0
0.820000 0.160000 0
0.840000 0.160000 0
0.860000 0.160000 0
0.880000 0.160000 0
0.900000 0.160000 0
0.920000 0.160000 0
0.940000 0.160000 0
0.960000 0.160000 0
0.980000 0.160000 0
1.000000 0.160000 0
0.000000 0.180000 0
0.020000 0.180000 0
0.040000 0.180000 0
0.060000 0.180000 0
0.080000 0.180000 0
0.100000 0.180000 0
0.120000 0.180000 0
0.140000 0.180000 0
0.160000 0.180000 0
0.180000 0.180000 0
0.200000 0.180000 0
0.220000 0.180000 0
0.240000 0.180000 0
0.260000 0.180000 0
0.280000 0.180000 0
0.300000 0.180000 0
0.320000 0.180000 0
0.340000 0.180000 0
0.360000 0.180000 0
0.380000 0.180000 0
0.400000 0.180000 0
0.420000 0.180000 0
0.440000 0.180000 0
0.460000 0.180000 0
0.480000 0.180000 0
0.500000 0.180000 0
0.520000 0.180000 0
0.540000 0.180000 0
0.560000 0.180000 0
0.580000 0.180000 0
0.600000 0.180000 0
0.620000 0.180000 0
[...]
POINT_DATA 2601 

VECTORS velocity float
0.000000 0.000000 0
0.000000 0.000000 0
0.000000 0.000000 0
0.000000 0.000000 0
0.000000 0.000000 0
0.000000 0.000000 0
0.000000 0.000000 0
0.000000 0.000000 0
0.000000 0.000000 0
-0.000000 0.000000 0
-0.000000 0.000000 0
-0.000000 0.000000 0
-0.000000 0.000000 0
0.000000 0.000000 0
0.000000 0.000000 0
-0.000000 0.000000 0
-0.000000 0.000000 0
-0.000000 0.000000 0
-0.000000 0.000000 0
-0.000000 0.000000 0
-0.000000 0.000000 0
-0.000000 0.000000 0
-0.000000 0.000000 0
-0.000000 0.000000 0
-0.000000 0.000000 0
-0.000000 0.000000 0
-0.000000 0.000000 0
-0.000000 0.000000 0
-0.000000 0.000000 0
-0.000000 0.000000 0
-0.000000 0.000000 0
-0.000000 0.000000 0
-0.000000 0.000000 0
-0.000000 0.000000 0
-0.000000 0.000000 0
-0.000000 0.000000 0
-0.000000 0.000000 0
-0.000000 0.000000 0
-0.000000 0.000000 0
-0.000000 0.000000 0
-0.000000 0.000000 0
0.000000 0.000000 0
0.000000 0.000000 0
0.000000 0.000000 0
0.000000 0.000000 0
0.000000 0.000000 0
0.000000 0.000000 0
0.000000 0.000000 0
0.000000 0.000000 0
-0.000000 0.000000 0
0.000000 0.000000 0
0.000000 0.000000 0
0.000059 -0.000058 0
0.000078 -0.000022 0
-0.000018 0.000055 0
-0.000257 0.000142 0
-0.000642 0.000225 0
-0.001161 0.000298 0
-0.001796 0.000358 0
-0.002527 0.000406 0
-0.003334 0.000442 0
-0.004198 0.000469 0
-0.005101 0.000486 0
-0.006028 0.000495 0
-0.006964 0.000496 0
-0.007894 0.000491 0
-0.008807 0.000479 0
-0.009690 0.000460 0
-0.010531 0.000435 0
-0.011316 0.000404 0
-0.012035 0.000366 0
-0.012674 0.000321 0
-0.013222 0.000271 0
-0.013667 0.000213 0
-0.013999 0.000150 0
-0.014207 0.000082 0
-0.014284 0.000010 0
-0.014224 -0.000066 0
-0.014022 -0.000143 0
-0.013678 -0.000220 0
-0.013194 -0.000295 0
-0.012577 -0.000366 0
-0.011835 -0.000431 0
-0.010981 -0.000488 0
-0.010033 -0.000535 0
-0.009010 -0.000570 0
-0.007935 -0.000591 0
-0.006833 -0.000598 0
-0.005730 -0.000590 0
-0.004654 -0.000567 0
-0.003632 -0.000528 0
-0.002689 -0.000476 0
-0.001848 -0.000412 0
-0.001130 -0.000337 0
-0.000551 -0.000254 0
-0.000120 -0.000167 0
0.000159 -0.000081 0
0.000292 -0.000000 0
0.000297 0.000064 0
0.000208 0.000098 0
0.000081 0.000081 0
0.000000 0.000000 0
0.000000 0.000000 0
0.000022 -0.000078 0
-0.000077 0.000076 0
-0.000386 0.000335 0
-0.000938 0.000624 0
-0.001737 0.000904 0
-0.002765 0.001154 0
-0.003995 0.001366 0
-0.005395 0.001538 0
-0.006931 0.001671 0
-0.008568 0.001767 0
-0.010278 0.001830 0
-0.012029 0.001862 0
-0.013794 0.001866 0
-0.015549 0.001844 0
-0.017267 0.001796 0
-0.018925 0.001723 0
-0.020500 0.001626 0
-0.021969 0.001504 0
-0.023308 0.001358 0
-0.024495 0.001187 0
-0.025508 0.000993 0
-0.026326 0.000777 0
-0.026930 0.000540 0
-0.027303 0.000285 0
-0.027431 0.000016 0
-0.027304 -0.000262 0
-0.026916 -0.000546 0
-0.026266 -0.000828 0
-0.025360 -0.001101 0
-0.024209 -0.001360 0
-0.022830 -0.001596 0
-0.021249 -0.001802 0
-0.019495 -0.001971 0
-0.017603 -0.002098 0
-0.015616 -0.002177 0
-0.013577 -0.002205 0
-0.011534 -0.002178 0
-0.009534 -0.002098 0
-0.007627 -0.001965 0
-0.005856 -0.001784 0
-0.004263 -0.001558 0
-0.002884 -0.001297 0
-0.001745 -0.001010 0
-0.000865 -0.000710 0
-0.000248 -0.000412 0
0.000116 -0.000138 0
0.000256 0.000084 0
0.000224 0.000217 0
0.000100 0.000208 0
0.000000 0.000000 0
0.000000 0.000000 0
-0.000057 0.000019 0
-0.000348 0.000386 0
-0.000939 0.000916 0
-0.001857 0.001493 0
-0.003099 0.002052 0
-0.004641 0.002556 0
-0.006448 0.002988 0
-0.008479 0.003341 0
-0.010690 0.003616 0
-0.013038 0.003816 0
-0.015480 0.003946 0
-0.017977 0.004011 0
-0.020490 0.004016 0
-0.022982 0.003963 0
-0.025420 0.003855 0
-0.027768 0.003694 0
-0.029994 0.003479 0
-0.032065 0.003212 0
-0.033949 0.002892 0
-0.035613 0.002522 0
-0.037029 0.002102 0
-0.038168 0.001636 0
-0.039003 0.001127 0
-0.039512 0.000583 0
-0.039678 0.000010 0
-0.039486 -0.000582 0
-0.038930 -0.001181 0
-0.038011 -0.001776 0
-0.036737 -0.002352 0
-0.035123 -0.002896 0
-0.033194 -0.003391 0
-0.030984 -0.003824 0
-0.028534 -0.004180 0
-0.025892 -0.004448 0
-0.023114 -0.004617 0
-0.020260 -0.004680 0
-0.017393 -0.004633 0
-0.014578 -0.004474 0
-0.011880 -0.004207 0
-0.009359 -0.003840 0
-0.007071 -0.003384 0
-0.005063 -0.002854 0
-0.003373 -0.002273 0
-0.002023 -0.001665 0
-0.001022 -0.001062 0
-0.000359 -0.000505 0
0.000001 -0.000044 0
0.000116 0.000254 0
0.000074 0.000305 0
0.000000 0.000000 0
0.000000 0.000000 0
-0.000152 0.000269 0
-0.000669 0.000958 0
-0.001583 0.001844 0
-0.002901 0.002784 0
-0.004607 0.003687 0
-0.006669 0.004503 0
-0.009043 0.005204 0
-0.011682 0.005780 0
-0.014533 0.006230 0
-0.017544 0.006557 0
-0.020665 0.006769 0
-0.023847 0.006872 0
-0.027043 0.006872 0
-0.030208 0.006774 0
-0.033297 0.006582 0
-0.036269 0.006297 0
-0.039081 0.005923 0
-0.041692 0.005459 0
-0.044063 0.004906 0
-0.046155 0.004268 0
-0.047930 0.003548 0
-0.049354 0.002751 0
-0.050395 0.001885 0
-0.051026 0.000960 0
-0.051226 -0.000010 0
-0.050980 -0.001010 0
-0.050281 -0.002020 0
-0.049129 -0.003021 0
-0.047534 -0.003990 0
-0.045517 -0.004903 0
-0.043109 -0.005735 0
-0.040349 -0.006462 0
-0.037288 -0.007063 0
-0.033984 -0.007518 0
-0.030505 -0.007809 0
-0.026922 -0.007926 0
-0.023313 -0.007860 0
-0.019757 -0.007611 0
-0.016330 -0.007185 0
-0.013107 -0.006593 0
-0.010156 -0.005854 0
-0.007535 -0.004995 0
-0.005290 -0.004050 0
-0.003451 -0.003060 0
-0.002030 -0.002077 0
-0.001018 -0.001162 0
-0.000382 -0.000390 0
-0.000064 0.000144 0
0.000023 0.000324 0
0.000000 0.000000 0
0.000000 0.000000 0
-0.000251 0.000687 0
-0.001006 0.001816 0
-0.002262 0.003147 0
-0.003997 0.004517 0
-0.006180 0.005820 0
-0.008765 0.006993 0
-0.011701 0.008002 0
-0.014931 0.008831 0
-0.018396 0.009478 0
-0.022036 0.009948 0
-0.025796 0.010249 0
-0.029617 0.010389 0
-0.033447 0.010376 0
-0.037232 0.010217 0
-0.040921 0.009916 0
-0.044465 0.009478 0
-0.047815 0.008903 0
-0.050922 0.008194 0
-0.053740 0.007355 0
-0.056224 0.006388 0
-0.058330 0.005300 0
-0.060019 0.004100 0
-0.061254 0.002800 0
-0.062006 0.001415 0
-0.062249 -0.000036 0
-0.061967 -0.001527 0
-0.061150 -0.003033 0
-0.059802 -0.004523 0
-0.057933 -0.005964 0
-0.055567 -0.007321 0
-0.052737 -0.008559 0
-0.049491 -0.009645 0
-0.045885 -0.010545 0
-0.041985 -0.011231 0
-0.037869 -0.011679 0
-0.033618 -0.011872 0
-0.029321 -0.011798 0
-0.025068 -0.011457 0
-0.020949 -0.010857 0
-0.017050 -0.010014 0
-0.013449 -0.008956 0
-0.010216 -0.007721 0
-0.007405 -0.006357 0
-0.005054 -0.004925 0
-0.003183 -0.003495 0
-0.001787 -0.002152 0
-0.000837 -0.000998 0
-0.000281 -0.000152 0
-0.000038 0.000240 0
0.000000 0.000000 0
0.000000 0.000000 0
-0.000347 0.001275 0
-0.001344 0.002969 0
-0.002945 0.004835 0
-0.005104 0.006702 0
-0.007767 0.008456 0
-0.010875 0.010025 0
-0.014365 0.011370 0
-0.018172 0.012474 0
-0.022230 0.013335 0
-0.026474 0.013957 0
-0.030839 0.014349 0
-0.035265 0.014522 0
-0.039690 0.014486 0
-0.044057 0.014249 0
-0.048308 0.013816 0
-0.052387 0.013191 0
-0.056239 0.012380 0
-0.059811 0.011384 0
-0.063049 0.010208 0
-0.065905 0.008858 0
-0.068328 0.007343 0
-0.070275 0.005675 0
-0.071706 0.003872 0
-0.072587 0.001955 0
-0.072890 -0.000049 0
-0.072596 -0.002108 0
-0.071696 -0.004185 0
-0.070190 -0.006239 0
-0.068091 -0.008225 0
-0.065423 -0.010098 0
-0.062224 -0.011810 0
-0.058544 -0.013315 0
-0.054444 -0.014569 0
-0.049998 -0.015534 0
-0.045290 -0.016177 0
-0.040411 -0.016473 0
-0.035458 -0.016410 0
-0.030534 -0.015983 0
-0.025738 -0.015203 0
-0.021169 -0.014093 0
-0.016916 -0.012688 0
-0.013060 -0.011040 0
-0.009665 -0.009212 0
-0.006779 -0.007282 0
-0.004430 -0.005344 0
-0.002621 -0.003507 0
-0.001331 -0.001896 0
-0.000515 -0.000656 0
-0.000102 0.000042 0
0.000000 0.000000 0
0.000000 0.000000 0
-0.000440 0.002030 0
-0.001672 0.004414 0
-0.003616 0.006908 0
-0.006195 0.009339 0
-0.009335 0.011592 0
-0.012960 0.013592 0
-0.016995 0.015299 0
-0.021365 0.016695 0
-0.025998 0.017779 0
-0.030823 0.018557 0
-0.035769 0.019040 0
-0.040771 0.019240 0
-0.045763 0.019169 0
-0.050682 0.018835 0
-0.055465 0.018247 0
-0.060053 0.017409 0
-0.064385 0.016327 0
-0.068402 0.015005 0
-0.072047 0.013448 0
-0.075265 0.011666 0
-0.078003 0.009671 0
-0.080213 0.007478 0
-0.081852 0.005111 0
-0.082880 0.002598 0
-0.083269 -0.000026 0
-0.082995 -0.002721 0
-0.082048 -0.005439 0
-0.080426 -0.008128 0
-0.078142 -0.010730 0
-0.075219 -0.013187 0
-0.071698 -0.015439 0
-0.067628 -0.017425 0
-0.063077 -0.019091 0
-0.058122 -0.020386 0
-0.052853 -0.021267 0
-0.047369 -0.021703 0
-0.041778 -0.021675 0
-0.036191 -0.021178 0
-0.030718 -0.020222 0
-0.025471 -0.018836 0
-0.020551 -0.017065 0
-0.016051 -0.014972 0
-0.012048 -0.012637 0
-0.008600 -0.010159 0
-0.005745 -0.007653 0
-0.003498 -0.005251 0
-0.001846 -0.003104 0
-0.000756 -0.001381 0
-0.000166 -0.000275 0
0.000000 0.000000 0
0.000000 0.000000 0
-0.000529 0.002947 0
-0.001989 0.006144 0
-0.004266 0.009358 0
-0.007256 0.012422 0
-0.010863 0.015220 0
-0.014994 0.017684 0
-0.019561 0.019775 0
-0.024480 0.021477 0
-0.029671 0.022792 0
-0.035056 0.023728 0
-0.040562 0.024298 0
-0.046117 0.024517 0
-0.051653 0.024398 0
-0.057102 0.023951 0
-0.062398 0.023187 0
-0.067476 0.022110 0
-0.072272 0.020728 0
-0.076724 0.019045 0
-0.080771 0.017071 0
-0.084354 0.014814 0
-0.087415 0.012291 0
-0.089903 0.009524 0
-0.091769 0.006539 0
-0.092973 0.003372 0
-0.093480 0.000065 0
-0.093265 -0.003329 0
-0.092313 -0.006754 0
-0.090621 -0.010145 0
-0.088199 -0.013432 0
-0.085068 -0.016542 0
-0.081268 -0.019401 0
-0.076851 -0.021936 0
-0.071885 -0.024076 0
-0.066450 -0.025758 0
-0.060643 -0.026929 0
-0.054569 -0.027548 0
-0.048344 -0.027589 0
-0.042089 -0.027043 0
-0.035928 -0.025923 0
-0.029984 -0.024260 0
-0.024372 -0.022108 0
-0.019198 -0.019544 0
-0.014553 -0.016663 0
-0.010511 -0.013585 0
-0.007121 -0.010447 0
-0.004410 -0.007406 0
-0.002378 -0.004637 0
-0.001001 -0.002336 0
-0.000231 -0.000713 0
0.000000 0.000000 0
0.000000 0.000000 0
-0.000613 0.004019 0
-0.002291 0.008151 0
-0.004889 0.012176 0
-0.008278 0.015937 0
-0.012337 0.019329 0
-0.016959 0.022289 0
-0.022042 0.024784 0
-0.027493 0.026805 0
-0.033223 0.028355 0
-0.039150 0.029449 0
-0.045196 0.030102 0
-0.051285 0.030331 0
-0.057346 0.030153 0
-0.063307 0.029579 0
-0.069100 0.028620 0
-0.074657 0.027283 0
-0.079911 0.025575 0
-0.084797 0.023504 0
-0.089248 0.021077 0
-0.093204 0.018310 0
-0.096604 0.015220 0
-0.099392 0.011833 0
-0.101516 0.008182 0
-0.102930 0.004309 0
-0.103596 0.000266 0
-0.103484 -0.003888 0
-0.102576 -0.008083 0
-0.100863 -0.012242 0
-0.098352 -0.016283 0
-0.095063 -0.020117 0
-0.091030 -0.023656 0
-0.086306 -0.026809 0
-0.080958 -0.029492 0
-0.075070 -0.031627 0
-0.068742 -0.033148 0
-0.062085 -0.034002 0
-0.055223 -0.034155 0
-0.048289 -0.033593 0
-0.041418 -0.032327 0
-0.034748 -0.030393 0
-0.028409 -0.027851 0
-0.022523 -0.024790 0
-0.017199 -0.021324 0
-0.012524 -0.017592 0
-0.008564 -0.013754 0
-0.005361 -0.009994 0
-0.002928 -0.006512 0
-0.001251 -0.003529 0
-0.000295 -0.001276 0
0.000000 0.000000 0
0.000000 0.000000 0
-0.000692 0.005239 0
-0.002578 0.010421 0
-0.005483 0.015345 0
-0.009253 0.019869 0
-0.013748 0.023901 0
-0.018842 0.027388 0
-0.024422 0.030308 0
-0.030385 0.032658 0
-0.036635 0.034450 0
-0.043084 0.035701 0
-0.049651 0.036433 0
-0.056256 0.036666 0
-0.062825 0.036419 0
-0.069284 0.035705 0
-0.075563 0.034536 0
-0.081592 0.032921 0
-0.087301 0.030867 0
-0.092622 0.028383 0
-0.097488 0.025479 0
-0.101833 0.022170 0
-0.105593 0.018479 0
-0.108709 0.014435 0
-0.111125 0.010076 0
-0.112791 0.005452 0
-0.113662 0.000620 0
-0.113704 -0.004349 0
-0.112893 -0.009375 0
-0.111215 -0.014368 0
-0.108670 -0.019233 0
-0.105274 -0.023864 0
-0.101057 -0.028158 0
-0.096069 -0.032008 0
-0.090375 -0.035311 0
-0.084060 -0.037974 0
-0.077225 -0.039915 0
-0.069990 -0.041066 0
-0.062485 -0.041384 0
-0.054854 -0.040848 0
-0.047246 -0.039464 0
-0.039814 -0.037270 0
-0.032706 -0.034333 0
-0.026064 -0.030754 0
-0.020013 -0.026663 0
-0.014661 -0.022219 0
-0.010092 -0.017609 0
-0.006363 -0.013042 0
-0.003502 -0.008747 0
-0.001511 -0.004969 0
-0.000360 -0.001965 0
0.000000 0.000000 0
0.000000 0.000000 0
-0.000767 0.006598 0
-0.002849 0.012942 0
-0.006045 0.018850 0
-0.010176 0.024200 0
-0.015085 0.028917 0
-0.020630 0.032963 0
-0.026685 0.036327 0
-0.033137 0.039018 0
-0.039886 0.041055 0
-0.046837 0.042465 0
-0.053904 0.043273 0
-0.061007 0.043505 0
-0.068068 0.043181 0
-0.075013 0.042318 0
-0.081768 0.040928 0
-0.088264 0.039021 0
-0.094428 0.036605 0
-0.100191 0.033690 0
-0.105483 0.030288 0
-0.110236 0.026416 0
-0.114383 0.022097 0
-0.117861 0.017365 0
-0.120608 0.012263 0
-0.122571 0.006846 0
-0.123699 0.001179 0
-0.123951 -0.004657 0
-0.123295 -0.010572 0
-0.121712 -0.016465 0
-0.119194 -0.022224 0
-0.115749 -0.027730 0
-0.111402 -0.032861 0
-0.106197 -0.037492 0
-0.100195 -0.041501 0
-0.093482 -0.044777 0
-0.086160 -0.047218 0
-0.078351 -0.048742 0
-0.070196 -0.049291 0
-0.061849 -0.048832 0
-0.053473 -0.047367 0
-0.045239 -0.044933 0
-0.037316 -0.041601 0
-0.029864 -0.037484 0
-0.023033 -0.032727 0
-0.016952 -0.027513 0
-0.011726 -0.022052 0
-0.007431 -0.016583 0
-0.004113 -0.011364 0
-0.001784 -0.006671 0
-0.000429 -0.002786 0
0.000000 0.000000 0
0.000000 0.000000 0
-0.000837 0.008088 0
-0.003102 0.015698 0
-0.006571 0.022672 0
-0.011042 0.028909 0
-0.016341 0.034354 0
-0.022311 0.038989 0
-0.028816 0.042817 0
-0.035734 0.045860 0
-0.042956 0.048149 0
-0.050385 0.049719 0
-0.057932 0.050603 0
-0.065513 0.050830 0
-0.073050 0.050425 0
-0.080467 0.049406 0
-0.087690 0.047788 0
-0.094648 0.045581 0
-0.101269 0.042794 0
-0.107481 0.039438 0
-0.113213 0.035523 0
-0.118394 0.031070 0
-0.122956 0.026104 0
-0.126830 0.020660 0
-0.129952 0.014786 0
-0.132260 0.008542 0
-0.133699 0.002000 0
-0.134221 -0.004752 0
-0.133785 -0.011613 0
-0.132363 -0.018470 0
-0.129937 -0.025196 0
-0.126508 -0.031656 0
-0.122091 -0.037711 0
-0.116723 -0.043214 0
-0.110461 -0.048026 0
-0.103385 -0.052010 0
-0.095598 -0.055045 0
-0.087226 -0.057030 0
-0.078417 -0.057887 0
-0.069335 -0.057571 0
-0.060161 -0.056073 0
-0.051082 -0.053427 0
-0.042291 -0.049708 0
-0.033972 -0.045037 0
-0.026301 -0.039575 0
-0.019431 -0.033526 0
-0.013493 -0.027130 0
-0.008585 -0.020655 0
-0.004770 -0.014394 0
-0.002078 -0.008653 0
-0.000502 -0.003749 0
0.000000 0.000000 0
0.000000 0.000000 0
-0.000903 0.009700 0
-0.003338 0.018674 0
-0.007058 0.026789 0
-0.011846 0.033971 0
-0.017509 0.040187 0
-0.023877 0.045439 0
-0.030803 0.049750 0
-0.038157 0.053158 0
-0.045826 0.055707 0
-0.053708 0.057440 0
-0.061710 0.058400 0
-0.069747 0.058622 0
-0.077740 0.058134 0
-0.085614 0.056958 0
-0.093295 0.055110 0
-0.100710 0.052600 0
-0.107787 0.049438 0
-0.114453 0.045634 0
-0.120638 0.041202 0
-0.126268 0.036159 0
-0.131272 0.030533 0
-0.135578 0.024361 0
-0.139116 0.017693 0
-0.141821 0.010593 0
-0.143629 0.003140 0
-0.144483 -0.004571 0
-0.144334 -0.012431 0
-0.143143 -0.020313 0
-0.140882 -0.028079 0
-0.137540 -0.035577 0
-0.133122 -0.042646 0
-0.127654 -0.049122 0
-0.121186 -0.054840 0
-0.113792 -0.059640 0
-0.105573 -0.063377 0
-0.096656 -0.065923 0
-0.087195 -0.067182 0
-0.077366 -0.067088 0
-0.067364 -0.065620 0
-0.057399 -0.062802 0
-0.047687 -0.058711 0
-0.038440 -0.053474 0
-0.029862 -0.047268 0
-0.022137 -0.040321 0
-0.015424 -0.032899 0
-0.009846 -0.025306 0
-0.005489 -0.017871 0
-0.002399 -0.010939 0
-0.000582 -0.004865 0
0.000000 0.000000 0
0.000000 0.000000 0
-0.000962 0.011424 0
-0.003552 0.021853 0
-0.007504 0.031180 0
-0.012583 0.039360 0
-0.018579 0.046386 0
-0.025314 0.052283 0
-0.032630 0.057097 0
-0.040390 0.060883 0
-0.048474 0.063699 0
-0.056779 0.065602 0
-0.065208 0.066642 0
-0.073677 0.066861 0
-0.082105 0.066292 0
-0.090418 0.064961 0
-0.098541 0.062883 0
-0.106404 0.060073 0
-0.113933 0.056538 0
-0.121058 0.052289 0
-0.127705 0.047338 0
-0.133801 0.041704 0
-0.139271 0.035413 0
-0.144041 0.028505 0
-0.148038 0.021029 0
-0.151188 0.013054 0
-0.153421 0.004662 0
-0.154672 -0.004047 0
-0.154880 -0.012953 0
-0.153995 -0.021922 0
-0.151977 -0.030799 0
-0.148800 -0.039417 0
-0.144458 -0.047597 0
-0.138964 -0.055150 0
-0.132357 -0.061888 0
-0.124702 -0.067623 0
-0.116095 -0.072181 0
-0.106663 -0.075408 0
-0.096563 -0.077177 0
-0.085982 -0.077401 0
-0.075131 -0.076040 0
-0.064242 -0.073105 0
-0.053555 -0.068668 0
-0.043316 -0.062861 0
-0.033761 -0.055877 0
-0.025108 -0.047964 0
-0.017548 -0.039422 0
-0.011236 -0.030590 0
-0.006283 -0.021840 0
-0.002755 -0.013560 0
-0.000670 -0.006149 0
0.000000 -0.000000 0
0.000000 -0.000000 0
-0.001015 0.013251 0
-0.003745 0.025216 0
-0.007905 0.035820 0
-0.013245 0.045047 0
-0.019545 0.052919 0
-0.026612 0.059489 0
-0.034282 0.064825 0
-0.042412 0.069002 0
-0.050878 0.072095 0
-0.059572 0.074174 0
-0.068397 0.075299 0
-0.077268 0.075520 0
-0.086105 0.074876 0
-0.094833 0.073395 0
-0.103381 0.071096 0
-0.111677 0.067992 0
-0.119650 0.064092 0
-0.127230 0.059406 0
-0.134343 0.053944 0
-0.140916 0.047725 0
-0.146872 0.040773 0
-0.152135 0.033128 0
-0.156626 0.024839 0
-0.160267 0.015976 0
-0.162980 0.006624 0
-0.164689 -0.003112 0
-0.165325 -0.013108 0
-0.164823 -0.023216 0
-0.163130 -0.033273 0
-0.160206 -0.043095 0
-0.156026 -0.052482 0
-0.150591 -0.061223 0
-0.143924 -0.069102 0
-0.136080 -0.075902 0
-0.127145 -0.081416 0
-0.117242 -0.085455 0
-0.106532 -0.087862 0
-0.095207 -0.088520 0
-0.083496 -0.087360 0
-0.071650 -0.084379 0
-0.059941 -0.079637 0
-0.048646 -0.073268 0
-0.038041 -0.065476 0
-0.028381 -0.056533 0
-0.019897 -0.046771 0
-0.012778 -0.036571 0
-0.007166 -0.026352 0
-0.003152 -0.016552 0
-0.000770 -0.007620 0
0.000000 -0.000000 0
0.000000 -0.000000 0
-0.001062 0.015169 0
-0.003914 0.028743 0
-0.008258 0.040682 0
-0.013829 0.051000 0
-0.020396 0.059753 0
-0.027760 0.067021 0
-0.035746 0.072897 0
-0.044207 0.077478 0
-0.053015 0.080858 0
-0.062060 0.083121 0
-0.071245 0.084338 0
-0.080484 0.084569 0
-0.089697 0.083858 0
-0.098812 0.082236 0
-0.107758 0.079726 0
-0.116466 0.076342 0
-0.124867 0.072091 0
-0.132891 0.066982 0
-0.140467 0.061024 0
-0.147521 0.054233 0
-0.153975 0.046633 0
-0.159750 0.038259 0
-0.164765 0.029161 0
-0.168936 0.019407 0
-0.172177 0.009084 0
-0.174405 -0.001701 0
-0.175537 -0.012819 0
-0.175496 -0.024116 0
-0.174213 -0.035416 0
-0.171632 -0.046521 0
-0.167711 -0.057211 0
-0.162431 -0.067252 0
-0.155799 -0.076399 0
-0.147853 -0.084402 0
-0.138669 -0.091019 0
-0.128360 -0.096021 0
-0.117084 -0.099212 0
-0.105042 -0.100437 0
-0.092473 -0.099597 0
-0.079652 -0.096660 0
-0.066880 -0.091672 0
-0.054471 -0.084761 0
-0.042741 -0.076142 0
-0.031994 -0.066108 0
-0.022501 -0.055025 0
-0.014494 -0.043321 0
-0.008153 -0.031466 0
-0.003597 -0.019956 0
-0.000882 -0.009300 0
0.000000 -0.000000 0
0.000000 -0.000000 0
-0.001101 0.017165 0
-0.004057 0.032413 0
-0.008558 0.045736 0
-0.014328 0.057185 0
-0.021126 0.066849 0
-0.028744 0.074838 0
-0.037004 0.081272 0
-0.045754 0.086271 0
-0.054861 0.089949 0
-0.064215 0.092404 0
-0.073718 0.093723 0
-0.083285 0.093972 0
-0.092836 0.093204 0
-0.102302 0.091455 0
-0.111613 0.088749 0
-0.120704 0.085101 0
-0.129507 0.080518 0
-0.137956 0.075006 0
-0.145981 0.068574 0
-0.153507 0.061232 0
-0.160460 0.053003 0
-0.166758 0.043918 0
-0.172316 0.034025 0
-0.177046 0.023388 0
-0.180856 0.012093 0
-0.183654 0.000247 0
-0.185346 -0.012016 0
-0.185842 -0.024540 0
-0.185056 -0.037137 0
-0.182913 -0.049597 0
-0.179354 -0.061683 0
-0.174337 -0.073135 0
-0.167849 -0.083680 0
-0.159907 -0.093033 0
-0.150571 -0.100909 0
-0.139942 -0.107040 0
-0.128171 -0.111180 0
-0.115458 -0.113131 0
-0.102055 -0.112750 0
-0.088256 -0.109972 0
-0.074393 -0.104819 0
-0.060818 -0.097406 0
-0.047896 -0.087953 0
-0.035977 -0.076774 0
-0.025387 -0.064270 0
-0.016407 -0.050919 0
-0.009259 -0.037249 0
-0.004099 -0.023823 0
-0.001009 -0.011217 0
0.000000 -0.000000 0
0.000000 0.000000 0
-0.001133 0.019227 0
-0.004174 0.036201 0
-0.008803 0.050952 0
-0.014736 0.063567 0
-0.021725 0.074168 0
-0.029556 0.082899 0
-0.038045 0.089906 0
-0.047036 0.095336 0
-0.056395 0.099320 0
-0.066011 0.101978 0
-0.075784 0.103408 0
-0.085631 0.103687 0
-0.095475 0.102875 0
-0.105247 0.101013 0
-0.114881 0.098128 0