# vtk DataFile Version 2.0
generated by CFD-lab course output (written by Tobias Neckel) 
ASCII

DATASET STRUCTURED_GRID
DIMENSIONS  51 51 1 
POINTS 2601 float

0.000000 0.000000 0
0.020000 0.000000 0
0.040000 0.000000 0
0.060000 0.000000 0
0.080000 0.000000 0
0.100000 0.000000 0
0.120000 0.000000 0
0.140000 0.000000 0
0.160000 0.000000 0
0.180000 0.000000 0
0.200000 0.000000 0
0.220000 0.000000 0
0.240000 0.000000 0
0.260000 0.000000 0
0.280000 0.000000 0
0.300000 0.000000 0
0.320000 0.000000 0
0.340000 0.000000 0
0.360000 0.000000 0
0.380000 0.000000 0
0.400000 0.000000 0
0.420000 0.000000 0
0.440000 0.000000 0
0.460000 0.000000 0
0.480000 0.000000 0
0.500000 0.000000 0
0.520000 0.000000 0
0.540000 0.000000 0
0.560000 0.000000 0
0.580000 0.000000 0
0.600000 0.000000 0
0.620000 0.000000 0
0.640000 0.000000 0
0.660000 0.000000 0
0.680000 0.000000 0
0.700000 0.000000 0
0.720000 0.000000 0
0.740000 0.000000 0
0.760000 0.000000 0
0.780000 0.000000 0
0.800000 0.000000 0
0.820000 0.000000 0
0.840000 0.000000 0
0.860000 0.000000 0
0.880000 0.000000 0
0.900000 0.000000 0
0.920000 0.000000 0
0.940000 0.000000 0
0.960000 0.000000 0
0.980000 0.000000 0
1.000000 0.000000 0
0.000000 0.020000 0
0.020000 0.020000 0
0.040000 0.020000 0
0.060000 0.020000 0
0.080000 0.020000 0
0.100000 0.020000 0
0.120000 0.020000 0
0.140000 0.020000 0
0.160000 0.020000 0
0.180000 0.020000 0
0.200000 0.020000 0
0.220000 0.020000 0
0.240000 0.020000 0
0.260000 0.020000 0
0.280000 0.020000 0
0.300000 0.020000 0
0.320000 0.020000 0
0.340000 0.020000 0
0.360000 0.020000 0
0.380000 0.020000 0
0.400000 0.020000 0
0.420000 0.020000 0
0.440000 0.020000 0
0.460000 0.020000 0
0.480000 0.020000 0
0.500000 0.020000 0
0.520000 0.020000 0
0.540000 0.020000 0
0.560000 0.020000 0
0.580000 0.020000 0
0.600000 0.020000 0
0.620000 0.020000 0
0.640000 0.020000 0
0.660000 0.020000 0
0.680000 0.020000 0
0.700000 0.020000 0
0.720000 0.020000 0
0.740000 0.020000 0
0.760000 0.020000 0
0.780000 0.020000 0
0.800000 0.020000 0
0.820000 0.020000 0
0.840000 0.020000 0
0.860000 0.020000 0
0.880000 0.020000 0
0.900000 0.020000 0
0.920000 0.020000 0
0.940000 0.020000 0
0.960000 0.020000 0
0.980000 0.020000 0
1.000000 0.020000 0
0.000000 0.040000 0
0.020000 0.040000 0
0.040000 0.040000 0
0.060000 0.040000 0
0.080000 0.040000 0
0.100000 0.040000 0
0.120000 0.040000 0
0.140000 0.040000 0
0.160000 0.040000 0
0.180000 0.040000 0
0.200000 0.040000 0
0.220000 0.040000 0
0.240000 0.040000 0
0.260000 0.040000 0
0.280000 0.040000 0
0.300000 0.040000 0
0.320000 0.040000 0
0.340000 0.040000 0
0.360000 0.040000 0
0.380000 0.040000 0
0.400000 0.040000 0
0.420000 0.040000 0
0.440000 0.040000 0
0.460000 0.040000 0
0.480000 0.040000 0
0.500000 0.040000 0
0.520000 0.040000 0
0.540000 0.040000 0
0.560000 0.040000 0
0.580000 0.040000 0
0.600000 0.040000 0
0.620000 0.040000 0
0.640000 0.040000 0
0.660000 0.040000 0
0.680000 0.040000 0
0.700000 0.040000 0
0.720000 0.040000 0
0.740000 0.040000 0
0.760000 0.040000 0
0.780000 0.040000 0
0.800000 0.040000 0
0.820000 0.040000 0
0.840000 0.040000 0
0.860000 0.040000 0
0.880000 0.040000 0
0.900000 0.040000 0
0.920000 0.040000 0
0.940000 0.040000 0
0.960000 0.040000 0
0.980000 0.040000 0
1.000000 0.040000 0
0.000000 0.060000 0
0.020000 0.060000 0
0.040000 0.060000 0
0.060000 0.060000 0
0.080000 0.060000 0
0.100000 0.060000 0
0.120000 0.060000 0
0.140000 0.060000 0
0.160000 0.060000 0
0.180000 0.060000 0
0.200000 0.060000 0
0.220000 0.060000 0
0.240000 0.060000 0
0.260000 0.060000 0
0.280000 0.060000 0
0.300000 0.060000 0
0.320000 0.060000 0
0.340000 0.060000 0
0.360000 0.060000 0
0.380000 0.060000 0
0.400000 0.060000 0
0.420000 0.060000 0
0.440000 0.060000 0
0.460000 0.060000 0
0.480000 0.060000 0
0.500000 0.060000 0
0.520000 0.060000 0
0.540000 0.060000 0
0.560000 0.060000 0
0.580000 0.060000 0
0.600000 0.060000 0
0.620000 0.060000 0
0.640000 0.060000 0
0.660000 0.060000 0
0.680000 0.060000 0
0.700000 0.060000 0
0.720000 0.060000 0
0.740000 0.060000 0
0.760000 0.060000 0
0.780000 0.060000 0
0.800000 0.060000 0
0.820000 0.060000 0
0.840000 0.060000 0
0.860000 0.060000 0
0.880000 0.060000 0
0.900000 0.060000 0
0.920000 0.060000 0
0.940000 0.060000 0
0.960000 0.060000 0
0.980000 0.060000 0
1.000000 0.060000 0
0.000000 0.080000 0
0.020000 0.080000 0
0.040000 0.080000 0
0.060000 0.080000 0
0.080000 0.080000 0
0.100000 0.080000 0
0.120000 0.080000 0
0.140000 0.080000 0
0.160000 0.080000 0
0.180000 0.080000 0
0.200000 0.080000 0
0.220000 0.080000 0
0.240000 0.080000 0
0.260000 0.080000 0
0.280000 0.080000 0
0.300000 0.080000 0
0.320000 0.080000 0
0.340000 0.080000 0
0.360000 0.080000 0
0.380000 0.080000 0
0.400000 0.080000 0
0.420000 0.080000 0
0.440000 0.080000 0
0.460000 0.080000 0
0.480000 0.080000 0
0.500000 0.080000 0
0.520000 0.080000 0
0.540000 0.080000 0
0.560000 0.080000 0
0.580000 0.080000 0
0.600000 0.080000 0
0.620000 0.080000 0
0.640000 0.080000 0
0.660000 0.080000 0
0.680000 0.080000 0
0.700000 0.080000 0
0.720000 0.080000 0
0.740000 0.080000 0
0.760000 0.080000 0
0.780000 0.080000 0
0.800000 0.080000 0
0.820000 0.080000 0
0.840000 0.080000 0
0.860000 0.080000 0
0.880000 0.080000 0
0.900000 0.080000 0
0.920000 0.080000 0
0.940000 0.080000 0
0.960000 0.080000 0
0.980000 0.080000 0
1.000000 0.080000 0
0.000000 0.100000 0
0.020000 0.100000 0
0.040000 0.100000 0
0.060000 0.100000 0
0.080000 0.100000 0
0.100000 0.100000 0
0.120000 0.100000 0
0.140000 0.100000 0
0.160000 0.100000 0
0.180000 0.100000 0
0.200000 0.100000 0
0.220000 0.100000 0
0.240000 0.100000 0
0.260000 0.100000 0
0.280000 0.100000 0
0.300000 0.100000 0
0.320000 0.100000 0
0.340000 0.100000 0
0.360000 0.100000 0
0.380000 0.100000 0
0.400000 0.100000 0
0.420000 0.100000 0
0.440000 0.100000 0
0.460000 0.100000 0
0.480000 0.100000 0
0.500000 0.100000 0
0.520000 0.100000 0
0.540000 0.100000 0
0.560000 0.100000 0
0.580000 0.100000 0
0.600000 0.100000 0
0.620000 0.100000 0
0.640000 0.100000 0
0.660000 0.100000 0
0.680000 0.100000 0
0.700000 0.100000 0
0.720000 0.100000 0
0.740000 0.100000 0
0.760000 0.100000 0
0.780000 0.100000 0
0.800000 0.100000 0
0.820000 0.100000 0
0.840000 0.100000 0
0.860000 0.100000 0
0.880000 0.100000 0
0.900000 0.100000 0
0.920000 0.100000 0
0.940000 0.100000 0
0.960000 0.100000 0
0.980000 0.100000 0
1.000000 0.100000 0
0.000000 0.120000 0
0.020000 0.120000 0
0.040000 0.120000 0
0.060000 0.120000 0
0.080000 0.120000 0
0.100000 0.120000 0
0.120000 0.120000 0
0.140000 0.120000 0
0.160000 0.120000 0
0.180000 0.120000 0
0.200000 0.120000 0
0.220000 0.120000 0
0.240000 0.120000 0
0.260000 0.120000 0
0.280000 0.120000 0
0.300000 0.120000 0
0.320000 0.120000 0
0.340000 0.120000 0
0.360000 0.120000 0
0.380000 0.120000 0
0.400000 0.120000 0
0.420000 0.120000 0
0.440000 0.120000 0
0.460000 0.120000 0
0.480000 0.120000 0
0.500000 0.120000 0
0.520000 0.120000 0
0.540000 0.120000 0
0.560000 0.120000 0
0.580000 0.120000 0
0.600000 0.120000 0
0.620000 0.120000 0
0.640000 0.120000 0
0.660000 0.120000 0
0.680000 0.120000 0
0.700000 0.120000 0
0.720000 0.120000 0
0.740000 0.120000 0
0.760000 0.120000 0
0.780000 0.120000 0
0.800000 0.120000 0
0.820000 0.120000 0
0.840000 0.120000 0
0.860000 0.120000 0
0.880000 0.120000 0
0.900000 0.120000 0
0.920000 0.120000 0
0.940000 0.120000 0
0.960000 0.120000 0
0.980000 0.120000 0
1.000000 0.120000 0
0.000000 0.140000 0
0.020000 0.140000 0
0.040000 0.140000 0
0.060000 0.140000 0
0.080000 0.140000 0
0.100000 0.140000 0
0.120000 0.140000 0
0.140000 0.140000 0
0.160000 0.140000 0
0.180000 0.140000 0
0.200000 0.140000 0
0.220000 0.140000 0
0.240000 0.140000 0
0.260000 0.140000 0
0.280000 0.140000 0
0.300000 0.140000 0
0.320000 0.140000 0
0.340000 0.140000 0
0.360000 0.140000 0
0.380000 0.140000 0
0.400000 0.140000 0
0.420000 0.140000 0
0.440000 0.140000 0
0.460000 0.140000 0
0.480000 0.140000 0
0.500000 0.140000 0
0.520000 0.140000 0
0.540000 0.140000 0
0.560000 0.140000 0
0.580000 0.140000 0
0.600000 0.140000 0
0.620000 0.140000 0
0.640000 0.140000 0
0.660000 0.140000 0
0.680000 0.140000 0
0.700000 0.140000 0
0.720000 0.140000 0
0.740000 0.140000 0
0.760000 0.140000 0
0.780000 0.140000 0
0.800000 0.140000 0
0.820000 0.140000 0
0.840000 0.140000 0
0.860000 0.140000 0
0.880000 0.140000 0
0.900000 0.140000 0
0.920000 0.140000 0
0.940000 0.140000 0
0.960000 0.140000 0
0.980000 0.140000 0
1.000000 0.140000 0
0.000000 0.160000 0
0.020000 0.160000 0
0.040000 0.160000 0
0.060000 0.160000 0
0.080000 0.160000 0
0.100000 0.160000 0
0.120000 0.160000 0
0.140000 0.160000 0
0.160000 0.160000 0
0.180000 0.160000 0
0.200000 0.160000 0
0.220000 0.160000 0
0.240000 0.160000 0
0.260000 0.160000 0
0.280000 0.160000 0
0.300000 0.160000 0
0.320000 0.160000 0
0.340000 0.160000 0
0.360000 0.160000 0
0.380000 0.160000 0
0.400000 0.160000 0
0.420000 0.160000 0
0.440000 0.160000 0
0.460000 0.160000 0
0.480000 0.160000 0
0.500000 0.160000 0
0.520000 0.160000 0
0.540000 0.160000 0
0.560000 0.160000 0
0.580000 0.160000 0
0.600000 0.160000 0
0.620000 0.160000 0
0.640000 0.160000 0
0.660000 0.160000 0
0.680000 0.160000 0
0.700000 0.160000 0
0.720000 0.160000 0
0.740000 0.160000 0
0.760000 0.160000 0
0.780000 0.160000 0
0.800000 0.160000 0
0.820000 0.160000 0
0.840000 0.160000 0
0.860000 0.160000 0
0.880000 0.160000 0
0.900000 0.160000 0
0.920000 0.160000 0
0.940000 0.160000 0
0.960000 0.160000 0
0.980000 0.160000 0
1.000000 0.160000 0
0.000000 0.180000 0
0.020000 0.180000 0
0.040000 0.180000 0
0.060000 0.180000 0
0.080000 0.180000 0
0.100000 0.180000 0
0.120000 0.180000 0
0.140000 0.180000 0
0.160000 0.180000 0
0.180000 0.180000 0
0.200000 0.180000 0
0.220000 0.180000 0
0.240000 0.180000 0
0.260000 0.180000 0
0.280000 0.180000 0
0.300000 0.180000 0
0.320000 0.180000 0
0.340000 0.180000 0
0.360000 0.180000 0
0.380000 0.180000 0
0.400000 0.180000 0
0.420000 0.180000 0
0.440000 0.180000 0
0.460000 0.180000 0
0.480000 0.180000 0
0.500000 0.180000 0
0.520000 0.180000 0
0.540000 0.180000 0
0.560000 0.180000 0
0.580000 0.180000 0
0.600000 0.180000 0
0.620000 0.180000 0
[...]
POINT_DATA 2601 

VECTORS velocity float
0.000000 0.000000 0
0.000001 0.000000 0
0.000000 0.000000 0
-0.000000 0.000000 0
-0.000001 0.000000 0
-0.000000 0.000000 0
-0.000000 0.000000 0
0.000000 0.000000 0
0.000000 0.000000 0
0.000000 0.000000 0
0.000000 0.000000 0
-0.000000 0.000000 0
-0.000000 0.000000 0
-0.000000 0.000000 0
-0.000000 0.000000 0
-0.000000 0.000000 0
0.000000 0.000000 0
0.000000 0.000000 0
-0.000000 0.000000 0
-0.000000 0.000000 0
-0.000000 0.000000 0
-0.000000 0.000000 0
-0.000000 0.000000 0
-0.000000 0.000000 0
-0.000000 0.000000 0
-0.000000 0.000000 0
-0.000000 0.000000 0
-0.000000 0.000000 0
-0.000000 0.000000 0
-0.000000 0.000000 0
-0.000000 0.000000 0
-0.000000 0.000000 0
-0.000000 0.000000 0
-0.000000 0.000000 0
-0.000000 0.000000 0
-0.000000 0.000000 0
-0.000000 0.000000 0
-0.000000 0.000000 0
-0.000000 0.000000 0
-0.000000 0.000000 0
0.000000 0.000000 0
0.000000 0.000000 0
0.000000 0.000000 0
0.000000 0.000000 0
0.000000 0.000000 0
0.000000 0.000000 0
0.000000 0.000000 0
0.000000 0.000000 0
0.000000 0.000000 0
0.000000 0.000000 0
0.000000 0.000000 0
0.000000 0.000001 0
0.000060 -0.000059 0
0.000081 -0.000022 0
-0.000016 0.000055 0
-0.000257 0.000143 0
-0.000644 0.000226 0
-0.001168 0.000300 0
-0.001808 0.000361 0
-0.002546 0.000410 0
-0.003361 0.000447 0
-0.004234 0.000473 0
-0.005146 0.000491 0
-0.006083 0.000500 0
-0.007028 0.000501 0
-0.007968 0.000496 0
-0.008891 0.000484 0
-0.009783 0.000465 0
-0.010632 0.000440 0
-0.011425 0.000408 0
-0.012151 0.000370 0
-0.012796 0.000325 0
-0.013350 0.000273 0
-0.013799 0.000215 0
-0.014133 0.000151 0
-0.014342 0.000082 0
-0.014419 0.000009 0
-0.014356 -0.000067 0
-0.014150 -0.000145 0
-0.013801 -0.000223 0
-0.013311 -0.000299 0
-0.012685 -0.000371 0
-0.011933 -0.000436 0
-0.011069 -0.000494 0
-0.010110 -0.000541 0
-0.009075 -0.000576 0
-0.007989 -0.000597 0
-0.006875 -0.000604 0
-0.005762 -0.000596 0
-0.004676 -0.000572 0
-0.003645 -0.000533 0
-0.002694 -0.000480 0
-0.001847 -0.000414 0
-0.001125 -0.000338 0
-0.000543 -0.000255 0
-0.000110 -0.000167 0
0.000169 -0.000080 0
0.000300 0.000001 0
0.000303 0.000066 0
0.000211 0.000099 0
0.000082 0.000081 0
0.000000 -0.000000 0
0.000000 0.000000 0
0.000024 -0.000080 0
-0.000076 0.000075 0
-0.000386 0.000336 0
-0.000942 0.000628 0
-0.001748 0.000911 0
-0.002786 0.001165 0
-0.004028 0.001379 0
-0.005442 0.001553 0
-0.006993 0.001688 0
-0.008648 0.001785 0
-0.010375 0.001849 0
-0.012145 0.001881 0
-0.013929 0.001885 0
-0.015702 0.001863 0
-0.017438 0.001814 0
-0.019114 0.001741 0
-0.020705 0.001642 0
-0.022188 0.001519 0
-0.023541 0.001371 0
-0.024739 0.001199 0
-0.025762 0.001002 0
-0.026586 0.000783 0
-0.027195 0.000544 0
-0.027569 0.000286 0
-0.027695 0.000014 0
-0.027563 -0.000268 0
-0.027168 -0.000555 0
-0.026508 -0.000840 0
-0.025588 -0.001117 0
-0.024422 -0.001378 0
-0.023026 -0.001616 0
-0.021425 -0.001823 0
-0.019650 -0.001994 0
-0.017737 -0.002121 0
-0.015728 -0.002200 0
-0.013668 -0.002227 0
-0.011605 -0.002199 0
-0.009587 -0.002117 0
-0.007662 -0.001982 0
-0.005876 -0.001797 0
-0.004271 -0.001569 0
-0.002883 -0.001305 0
-0.001738 -0.001015 0
-0.000854 -0.000711 0
-0.000236 -0.000411 0
0.000127 -0.000135 0
0.000264 0.000089 0
0.000229 0.000222 0
0.000102 0.000211 0
0.000000 0.000000 0
0.000000 -0.000000 0
-0.000057 0.000016 0
-0.000350 0.000386 0
-0.000945 0.000921 0
-0.001871 0.001505 0
-0.003124 0.002071 0
-0.004682 0.002581 0
-0.006508 0.003018 0
-0.008560 0.003375 0
-0.010795 0.003653 0
-0.013168 0.003855 0
-0.015636 0.003987 0
-0.018159 0.004053 0
-0.020699 0.004058 0
-0.023218 0.004005 0
-0.025681 0.003896 0
-0.028055 0.003732 0
-0.030304 0.003514 0
-0.032395 0.003244 0
-0.034297 0.002920 0
-0.035978 0.002545 0
-0.037406 0.002120 0
-0.038554 0.001648 0
-0.039394 0.001134 0
-0.039905 0.000583 0
-0.040067 0.000003 0
-0.039868 -0.000595 0
-0.039302 -0.001201 0
-0.038368 -0.001803 0
-0.037074 -0.002385 0
-0.035438 -0.002933 0
-0.033485 -0.003433 0
-0.031248 -0.003870 0
-0.028769 -0.004228 0
-0.026097 -0.004497 0
-0.023289 -0.004666 0
-0.020405 -0.004728 0
-0.017509 -0.004677 0
-0.014667 -0.004515 0
-0.011945 -0.004243 0
-0.009402 -0.003870 0
-0.007096 -0.003408 0
-0.005074 -0.002872 0
-0.003373 -0.002284 0
-0.002017 -0.001669 0
-0.001013 -0.001061 0
-0.000349 -0.000499 0
0.000009 -0.000036 0
0.000121 0.000262 0
0.000076 0.000310 0
0.000000 0.000000 0
0.000000 -0.000001 0
-0.000154 0.000268 0
-0.000674 0.000963 0
-0.001596 0.001859 0
-0.002927 0.002809 0
-0.004651 0.003723 0
-0.006734 0.004548 0
-0.009135 0.005257 0
-0.011802 0.005840 0
-0.014684 0.006295 0
-0.017728 0.006626 0
-0.020883 0.006840 0
-0.024100 0.006944 0
-0.027330 0.006945 0
-0.030529 0.006845 0
-0.033651 0.006651 0
-0.036654 0.006363 0
-0.039495 0.005983 0
-0.042132 0.005513 0
-0.044526 0.004954 0
-0.046637 0.004308 0
-0.048427 0.003578 0
-0.049861 0.002771 0
-0.050908 0.001895 0
-0.051540 0.000959 0
-0.051736 -0.000023 0
-0.051481 -0.001034 0
-0.050767 -0.002056 0
-0.049596 -0.003067 0
-0.047978 -0.004046 0
-0.045933 -0.004967 0
-0.043493 -0.005806 0
-0.040700 -0.006540 0
-0.037602 -0.007145 0
-0.034261 -0.007601 0
-0.030744 -0.007892 0
-0.027124 -0.008006 0
-0.023479 -0.007936 0
-0.019888 -0.007681 0
-0.016430 -0.007247 0
-0.013179 -0.006646 0
-0.010204 -0.005897 0
-0.007564 -0.005028 0
-0.005304 -0.004072 0
-0.003454 -0.003072 0
-0.002026 -0.002079 0
-0.001012 -0.001156 0
-0.000376 -0.000380 0
-0.000060 0.000155 0
0.000025 0.000332 0
0.000000 0.000000 0
0.000000 -0.000001 0
-0.000253 0.000690 0
-0.001016 0.001830 0
-0.002284 0.003175 0
-0.004038 0.004560 0
-0.006244 0.005878 0
-0.008858 0.007065 0
-0.011827 0.008085 0
-0.015093 0.008924 0
-0.018596 0.009579 0
-0.022277 0.010055 0
-0.026077 0.010359 0
-0.029941 0.010500 0
-0.033812 0.010487 0
-0.037638 0.010325 0
-0.041367 0.010020 0
-0.044947 0.009576 0
-0.048331 0.008993 0
-0.051469 0.008276 0
-0.054314 0.007425 0
-0.056819 0.006446 0
-0.058943 0.005344 0
-0.060643 0.004129 0
-0.061885 0.002813 0
-0.062637 0.001411 0
-0.062874 -0.000056 0
-0.062580 -0.001564 0
-0.061747 -0.003087 0
-0.060376 -0.004592 0
-0.058479 -0.006047 0
-0.056080 -0.007418 0
-0.053214 -0.008667 0
-0.049928 -0.009761 0
-0.046279 -0.010667 0
-0.042335 -0.011356 0
-0.038174 -0.011804 0
-0.033879 -0.011993 0
-0.029540 -0.011913 0
-0.025246 -0.011564 0
-0.021089 -0.010952 0
-0.017155 -0.010096 0
-0.013525 -0.009023 0
-0.010266 -0.007773 0
-0.007435 -0.006394 0
-0.005070 -0.004946 0
-0.003188 -0.003503 0
-0.001786 -0.002149 0
-0.000835 -0.000988 0
-0.000278 -0.000139 0
-0.000036 0.000250 0
0.000000 0.000000 0
0.000000 -0.000000 0
-0.000351 0.001284 0
-0.001357 0.002994 0
-0.002976 0.004881 0
-0.005159 0.006769 0
-0.007853 0.008543 0
-0.010997 0.010130 0
-0.014527 0.011491 0
-0.018377 0.012608 0
-0.022480 0.013479 0
-0.026771 0.014108 0
-0.031185 0.014504 0
-0.035660 0.014679 0
-0.040133 0.014641 0
-0.044547 0.014400 0
-0.048842 0.013960 0
-0.052964 0.013327 0
-0.056854 0.012505 0
-0.060461 0.011495 0
-0.063729 0.010304 0
-0.066609 0.008937 0
-0.069051 0.007402 0
-0.071011 0.005714 0
-0.072448 0.003888 0
-0.073329 0.001948 0
-0.073625 -0.000079 0
-0.073318 -0.002161 0
-0.072397 -0.004260 0
-0.070865 -0.006336 0
-0.068735 -0.008342 0
-0.066030 -0.010232 0
-0.062790 -0.011959 0
-0.059065 -0.013475 0
-0.054917 -0.014737 0
-0.050421 -0.015706 0
-0.045662 -0.016348 0
-0.040733 -0.016641 0
-0.035731 -0.016570 0
-0.030760 -0.016132 0
-0.025920 -0.015338 0
-0.021310 -0.014210 0
-0.017022 -0.012786 0
-0.013135 -0.011117 0
-0.009715 -0.009268 0
-0.006810 -0.007319 0
-0.004446 -0.005363 0
-0.002627 -0.003510 0
-0.001332 -0.001888 0
-0.000514 -0.000643 0
-0.000101 0.000053 0
0.000000 0.000000 0
0.000000 0.000000 0
-0.000445 0.002048 0
-0.001691 0.004456 0
-0.003657 0.006977 0
-0.006267 0.009436 0
-0.009443 0.011715 0
-0.013110 0.013738 0
-0.017192 0.015465 0
-0.021612 0.016878 0
-0.026298 0.017974 0
-0.031177 0.018760 0
-0.036178 0.019247 0
-0.041235 0.019448 0
-0.046281 0.019374 0
-0.051253 0.019035 0
-0.056086 0.018437 0
-0.060720 0.017588 0
-0.065094 0.016490 0
-0.069149 0.015150 0
-0.072826 0.013573 0
-0.076071 0.011768 0
-0.078830 0.009747 0
-0.081053 0.007527 0
-0.082698 0.005131 0
-0.083726 0.002588 0
-0.084107 -0.000067 0
-0.083818 -0.002792 0
-0.082849 -0.005539 0
-0.081199 -0.008255 0
-0.078879 -0.010883 0
-0.075917 -0.013362 0
-0.072350 -0.015632 0
-0.068231 -0.017634 0
-0.063627 -0.019310 0
-0.058617 -0.020610 0
-0.053293 -0.021492 0
-0.047753 -0.021924 0
-0.042107 -0.021886 0
-0.036466 -0.021375 0
-0.030944 -0.020401 0
-0.025651 -0.018994 0
-0.020690 -0.017199 0
-0.016153 -0.015080 0
-0.012119 -0.012719 0
-0.008646 -0.010215 0
-0.005773 -0.007685 0
-0.003512 -0.005263 0
-0.001852 -0.003101 0
-0.000757 -0.001370 0
-0.000166 -0.000264 0
0.000000 0.000000 0
0.000000 0.000000 0
-0.000535 0.002976 0
-0.002012 0.006207 0
-0.004317 0.009456 0
-0.007343 0.012554 0
-0.010993 0.015386 0
-0.015172 0.017878 0
-0.019792 0.019993 0
-0.024768 0.021715 0
-0.030018 0.023044 0
-0.035464 0.023988 0
-0.041032 0.024563 0
-0.046648 0.024782 0
-0.052243 0.024659 0
-0.057749 0.024204 0
-0.063099 0.023428 0
-0.068227 0.022335 0
-0.073069 0.020933 0
-0.077562 0.019228 0
-0.081644 0.017226 0
-0.085254 0.014940 0
-0.088337 0.012385 0
-0.090839 0.009582 0
-0.092713 0.006561 0
-0.093916 0.003357 0
-0.094414 0.000013 0
-0.094183 -0.003419 0
-0.093208 -0.006880 0
-0.091485 -0.010305 0
-0.089025 -0.013623 0
-0.085852 -0.016762 0
-0.082004 -0.019644 0
-0.077534 -0.022197 0
-0.072511 -0.024350 0
-0.067017 -0.026040 0
-0.061149 -0.027213 0
-0.055015 -0.027827 0
-0.048729 -0.027857 0
-0.042416 -0.027295 0
-0.036200 -0.026153 0
-0.030203 -0.024465 0
-0.024544 -0.022284 0
-0.019328 -0.019688 0
-0.014647 -0.016775 0
-0.010575 -0.013665 0
-0.007161 -0.010497 0
-0.004433 -0.007431 0
-0.002389 -0.004643 0
-0.001005 -0.002329 0
-0.000231 -0.000704 0
0.000000 0.000000 0
0.000000 0.000000 0
-0.000620 0.004061 0
-0.002319 0.008237 0
-0.004949 0.012307 0
-0.008379 0.016112 0
-0.012487 0.019543 0
-0.017164 0.022538 0
-0.022306 0.025061 0
-0.027820 0.027104 0
-0.033616 0.028670 0
-0.039609 0.029773 0
-0.045722 0.030431 0
-0.051877 0.030659 0
-0.058002 0.030475 0
-0.064024 0.029890 0
-0.069875 0.028916 0
-0.075486 0.027558 0
-0.080788 0.025825 0
-0.085716 0.023725 0
-0.090205 0.021265 0
-0.094191 0.018461 0
-0.097613 0.015332 0
-0.100416 0.011902 0
-0.102547 0.008207 0
-0.103960 0.004289 0
-0.104617 0.000200 0
-0.104489 -0.003998 0
-0.103556 -0.008237 0
-0.101812 -0.012437 0
-0.099262 -0.016516 0
-0.095927 -0.020384 0
-0.091844 -0.023951 0
-0.087065 -0.027127 0
-0.081657 -0.029827 0
-0.075707 -0.031972 0
-0.069314 -0.033495 0
-0.062592 -0.034344 0
-0.055665 -0.034485 0
-0.048667 -0.033905 0
-0.041735 -0.032614 0
-0.035007 -0.030650 0
-0.028615 -0.028074 0
-0.022682 -0.024976 0
-0.017316 -0.021472 0
-0.012606 -0.017701 0
-0.008618 -0.013827 0
-0.005393 -0.010036 0
-0.002944 -0.006529 0
-0.001258 -0.003528 0
-0.000296 -0.001269 0
0.000000 0.000000 0
0.000000 0.000000 0
-0.000701 0.005295 0
-0.002610 0.010535 0
-0.005552 0.015516 0
-0.009367 0.020092 0
-0.013916 0.024171 0
-0.019070 0.027698 0
-0.024716 0.030650 0
-0.030747 0.033024 0
-0.037068 0.034833 0
-0.043589 0.036095 0
-0.050227 0.036831 0
-0.056902 0.037062 0
-0.063539 0.036806 0
-0.070063 0.036078 0
-0.076403 0.034889 0
-0.082488 0.033249 0
-0.088248 0.031164 0
-0.093614 0.028644 0
-0.098518 0.025700 0
-0.102894 0.022348 0
-0.106678 0.018610 0
-0.109810 0.014516 0
-0.112233 0.010105 0
-0.113898 0.005427 0
-0.114761 0.000541 0
-0.114786 -0.004480 0
-0.113950 -0.009557 0
-0.112240 -0.014599 0
-0.109656 -0.019508 0
-0.106213 -0.024179 0
-0.101945 -0.028507 0
-0.096899 -0.032384 0
-0.091143 -0.035708 0
-0.084763 -0.038383 0
-0.077861 -0.040328 0
-0.070556 -0.041476 0
-0.062982 -0.041781 0
-0.055283 -0.041225 0
-0.047609 -0.039813 0
-0.040114 -0.037585 0
-0.032948 -0.034609 0
-0.026252 -0.030987 0
-0.020154 -0.026851 0
-0.014762 -0.022363 0
-0.010159 -0.017710 0
-0.006404 -0.013105 0
-0.003524 -0.008778 0
-0.001520 -0.004977 0
-0.000362 -0.001962 0
0.000000 0.000000 0
0.000000 0.000000 0
-0.000777 0.006671 0
-0.002885 0.013087 0
-0.006120 0.019064 0
-0.010302 0.024476 0
-0.015269 0.029247 0
-0.020879 0.033338 0
-0.027005 0.036738 0
-0.033531 0.039456 0
-0.040355 0.041512 0
-0.047382 0.042932 0
-0.054524 0.043744 0
-0.061700 0.043971 0
-0.068832 0.043636 0
-0.075845 0.042755 0
-0.082664 0.041341 0
-0.089218 0.039403 0
-0.095435 0.036951 0
-0.101245 0.033994 0
-0.106576 0.030545 0
-0.111361 0.026621 0
-0.115532 0.022248 0
-0.119026 0.017458 0
-0.121782 0.012295 0
-0.123744 0.006816 0
-0.124864 0.001088 0
-0.125100 -0.004809 0
-0.124420 -0.010783 0
-0.122805 -0.016732 0
-0.120247 -0.022542 0
-0.116756 -0.028095 0
-0.112356 -0.033265 0
-0.107093 -0.037928 0
-0.101029 -0.041963 0
-0.094248 -0.045254 0
-0.086856 -0.047701 0
-0.078975 -0.049223 0
-0.070747 -0.049758 0
-0.062328 -0.049278 0
-0.053881 -0.047783 0
-0.045580 -0.045311 0
-0.037592 -0.041936 0
-0.030081 -0.037770 0
-0.023198 -0.032962 0
-0.017071 -0.027696 0
-0.011807 -0.022185 0
-0.007481 -0.016670 0
-0.004140 -0.011413 0
-0.001796 -0.006690 0
-0.000431 -0.002789 0
0.000000 0.000000 0
0.000000 -0.000000 0
-0.000848 0.008180 0
-0.003141 0.015878 0
-0.006652 0.022933 0
-0.011178 0.029242 0
-0.016539 0.034749 0
-0.022579 0.039433 0
-0.029159 0.043301 0
-0.036154 0.046374 0
-0.043455 0.048683 0
-0.050963 0.050264 0
-0.058588 0.051150 0
-0.066245 0.051370 0
-0.073855 0.050950 0
-0.081342 0.049910 0
-0.088631 0.048263 0
-0.095649 0.046020 0
-0.102323 0.043190 0
-0.108583 0.039785 0
-0.114355 0.035817 0
-0.119569 0.031305 0
-0.124156 0.026275 0
-0.128047 0.020766 0
-0.131178 0.014823 0
-0.133487 0.008509 0
-0.134919 0.001897 0
-0.135425 -0.004924 0
-0.134966 -0.011852 0
-0.133512 -0.018772 0
-0.131048 -0.025556 0
-0.127573 -0.032070 0
-0.123104 -0.038170 0
-0.117678 -0.043712 0
-0.111352 -0.048552 0
-0.104208 -0.052556 0
-0.096350 -0.055601 0
-0.087904 -0.057584 0
-0.079019 -0.058429 0
-0.069862 -0.058091 0
-0.060612 -0.056561 0
-0.051462 -0.053874 0
-0.042601 -0.050107 0
-0.034219 -0.045381 0
-0.026489 -0.039862 0
-0.019569 -0.033754 0
-0.013588 -0.027300 0
-0.008644 -0.020772 0
-0.004803 -0.014463 0
-0.002092 -0.008685 0
-0.000505 -0.003758 0
0.000000 -0.000000 0
0.000000 -0.000000 0
-0.000914 0.009812 0
-0.003379 0.018891 0
-0.007144 0.027100 0
-0.011989 0.034364 0
-0.017718 0.040649 0
-0.024159 0.045957 0
-0.031162 0.050312 0
-0.038597 0.053752 0
-0.046348 0.056322 0
-0.054311 0.058066 0
-0.062393 0.059026 0
-0.070508 0.059239 0
-0.078577 0.058733 0
-0.086522 0.057530 0
-0.094268 0.055647 0
-0.101744 0.053096 0
-0.108875 0.049885 0
-0.115590 0.046026 0
-0.121816 0.041532 0
-0.127479 0.036422 0
-0.132508 0.030725 0
-0.136832 0.024479 0
-0.140380 0.017735 0
-0.143087 0.010557 0
-0.144888 0.003026 0
-0.145728 -0.004762 0
-0.145558 -0.012696 0
-0.144337 -0.020650 0
-0.142039 -0.028481 0
-0.138653 -0.036039 0
-0.134184 -0.043160 0
-0.128659 -0.049680 0
-0.122128 -0.055432 0
-0.114666 -0.060256 0
-0.106375 -0.064006 0
-0.097383 -0.066553 0
-0.087845 -0.067801 0
-0.077937 -0.067685 0
-0.067857 -0.066183 0
-0.057816 -0.063322 0
-0.048030 -0.059179 0
-0.038714 -0.053882 0
-0.030074 -0.047612 0
-0.022293 -0.040598 0
-0.015532 -0.033110 0
-0.009914 -0.025455 0
-0.005527 -0.017964 0
-0.002416 -0.010987 0
-0.000586 -0.004881 0
0.000000 -0.000000 0
0.000000 -0.000000 0
-0.000974 0.011558 0
-0.003595 0.022108 0
-0.007594 0.031544 0
-0.012731 0.039815 0
-0.018797 0.046918 0
-0.025606 0.052878 0
-0.033001 0.057739 0
-0.040843 0.061559 0
-0.049011 0.064397 0
-0.057398 0.066309 0
-0.065909 0.067347 0
-0.074457 0.067554 0
-0.082961 0.066964 0
-0.091345 0.065601 0
-0.099535 0.063485 0
-0.107458 0.060626 0
-0.115042 0.057037 0
-0.122215 0.052725 0
-0.128902 0.047706 0
-0.135032 0.041997 0
-0.140528 0.035628 0
-0.145317 0.028638 0
-0.149324 0.021078 0
-0.152477 0.013016 0
-0.154705 0.004538 0
-0.155943 -0.004255 0
-0.156131 -0.013244 0
-0.155218 -0.022290 0
-0.153166 -0.031240 0
-0.149948 -0.039925 0
-0.145557 -0.048164 0
-0.140008 -0.055768 0
-0.133340 -0.062545 0
-0.125618 -0.068309 0
-0.116940 -0.072884 0
-0.107433 -0.076115 0
-0.097255 -0.077875 0
-0.086594 -0.078078 0
-0.075663 -0.076682 0
-0.064694 -0.073702 0
-0.053930 -0.069209 0
-0.043618 -0.063338 0
-0.033995 -0.056283 0
-0.025282 -0.048296 0
-0.017669 -0.039679 0
-0.011313 -0.030776 0
-0.006326 -0.021961 0
-0.002774 -0.013626 0
-0.000675 -0.006174 0
0.000000 -0.000000 0
0.000000 -0.000000 0
-0.001027 0.013407 0
-0.003789 0.025511 0
-0.007997 0.036237 0
-0.013397 0.045566 0
-0.019766 0.053524 0
-0.026910 0.060162 0
-0.034660 0.065549 0
-0.042873 0.069762 0
-0.051422 0.072876 0
-0.060199 0.074963 0
-0.069106 0.076085 0
-0.078056 0.076291 0
-0.086968 0.075621 0
-0.095767 0.074104 0
-0.104381 0.071760 0
-0.112736 0.068603 0
-0.120763 0.064642 0
-0.128390 0.059886 0
-0.135544 0.054349 0
-0.142150 0.048048 0
-0.148133 0.041011 0
-0.153414 0.033275 0
-0.157917 0.024895 0
-0.161561 0.015938 0
-0.164270 0.006493 0
-0.165969 -0.003336 0
-0.166587 -0.013421 0
-0.166061 -0.023615 0
-0.164336 -0.033752 0
-0.161372 -0.043647 0
-0.157148 -0.053100 0
-0.151661 -0.061897 0
-0.144936 -0.069822 0
-0.137028 -0.076656 0
-0.128024 -0.082191 0
-0.118047 -0.086239 0
-0.107259 -0.088640 0
-0.095854 -0.089277 0
-0.084061 -0.088084 0
-0.072134 -0.085055 0
-0.060345 -0.080255 0
-0.048974 -0.073817 0
-0.038296 -0.065948 0
-0.028572 -0.056924 0
-0.020031 -0.047079 0
-0.012864 -0.036799 0
-0.007214 -0.026504 0
-0.003173 -0.016638 0
-0.000775 -0.007655 0
0.000000 -0.000000 0
0.000000 0.000000 0
-0.001074 0.015347 0
-0.003958 0.029078 0
-0.008350 0.041152 0
-0.013982 0.051584 0
-0.020618 0.060430 0
-0.028057 0.067772 0
-0.036123 0.073703 0
-0.044667 0.078322 0
-0.053558 0.081723 0
-0.062686 0.083993 0
-0.071951 0.085204 0
-0.081268 0.085416 0
-0.090555 0.084675 0
-0.099740 0.083014 0
-0.108750 0.080453 0
-0.117516 0.077009 0
-0.125970 0.072691 0
-0.134040 0.067506 0
-0.141655 0.061466 0
-0.148741 0.054586 0
-0.155220 0.046892 0
-0.161014 0.038421 0
-0.166041 0.029225 0
-0.170216 0.019370 0
-0.173456 0.008946 0
-0.175675 -0.001938 0
-0.176791 -0.013152 0
-0.176729 -0.024542 0
-0.175418 -0.035929 0
-0.172802 -0.047113 0
-0.168839 -0.057876 0
-0.163512 -0.067980 0
-0.156826 -0.077178 0
-0.148820 -0.085221 0
-0.139569 -0.091864 0
-0.129189 -0.096879 0
-0.117838 -0.100068 0
-0.105717 -0.101276 0
-0.093067 -0.100403 0
-0.080163 -0.097418 0
-0.067309 -0.092369 0
-0.054821 -0.085386 0
-0.043017 -0.076684 0
-0.032201 -0.066561 0
-0.022647 -0.055388 0
-0.014589 -0.043593 0
-0.008207 -0.031652 0
-0.003621 -0.020066 0
-0.000888 -0.009346 0
0.000000 -0.000000 0
0.000000 0.000000 0
-0.001113 0.017365 0
-0.004101 0.032787 0
-0.008649 0.046260 0
-0.014478 0.057834 0
-0.021344 0.067599 0
-0.029037 0.075667 0
-0.037376 0.082158 0
-0.046206 0.087197 0
-0.055395 0.090895 0
-0.064830 0.093357 0
-0.074411 0.094667 0
-0.084053 0.094894 0
-0.093676 0.094093 0
-0.103208 0.092298 0
-0.112581 0.089537 0
-0.121728 0.085823 0
-0.130582 0.081165 0
-0.139075 0.075572 0
-0.147137 0.069050 0
-0.154695 0.061614 0
-0.161672 0.053284 0
-0.167987 0.044096 0
-0.173557 0.034097 0
-0.178292 0.023353 0
-0.182102 0.011951 0
-0.184893 -0.000000 0
-0.186572 -0.012367 0
-0.187049 -0.024988 0
-0.186239 -0.037679 0
-0.184066 -0.050226 0
-0.180470 -0.062389 0
-0.175410 -0.073911 0
-0.168873 -0.084514 0
-0.160877 -0.093912 0
-0.151480 -0.101821 0
-0.140784 -0.107970 0
-0.128941 -0.112112 0
-0.116152 -0.114049 0
-0.102670 -0.113638 0
-0.088789 -0.110813 0
-0.074843 -0.105597 0
-0.061189 -0.098109 0
-0.048189 -0.088568 0
-0.036198 -0.077294 0
-0.025544 -0.064691 0
-0.016509 -0.051239 0
-0.009317 -0.037472 0
-0.004125 -0.023957 0
-0.001016 -0.011275 0
0.000000 -0.000000 0
0.000000 0.000000 0
-0.001145 0.019448 0
-0.004217 0.036614 0
-0.008891 0.051529 0
-0.014882 0.064279 0
-0.021936 0.074989 0
-0.029839 0.083803 0
-0.038404 0.090871 0
-0.047473 0.096341 0
-0.056911 0.100347 0
-0.066604 0.103009 0
-0.076453 0.104427 0
-0.086371 0.104681 0
-0.096283 0.103831 0
-0.106118 0.101919 0