# vtk DataFile Version 2.0
generated by CFD-lab course output (written by Tobias Neckel) 
ASCII

DATASET STRUCTURED_GRID
DIMENSIONS  51 51 1 
POINTS 2601 float

0.000000 0.000000 0
0.020000 0.000000 0
0.040000 0.000000 0
0.060000 0.000000 0
0.080000 0.000000 0
0.100000 0.000000 0
0.120000 0.000000 0
0.140000 0.000000 0
0.160000 0.000000 0
0.180000 0.000000 0
0.200000 0.000000 0
0.220000 0.000000 0
0.240000 0.000000 0
0.260000 0.000000 0
0.280000 0.000000 0
0.300000 0.000000 0
0.320000 0.000000 0
0.340000 0.000000 0
0.360000 0.000000 0
0.380000 0.000000 0
0.400000 0.000000 0
0.420000 0.000000 0
0.440000 0.000000 0
0.460000 0.000000 0
0.480000 0.000000 0
0.500000 0.000000 0
0.520000 0.000000 0
0.540000 0.000000 0
0.560000 0.000000 0
0.580000 0.000000 0
0.600000 0.000000 0
0.620000 0.000000 0
0.640000 0.000000 0
0.660000 0.000000 0
0.680000 0.000000 0
0.700000 0.000000 0
0.720000 0.000000 0
0.740000 0.000000 0
0.760000 0.000000 0
0.780000 0.000000 0
0.800000 0.000000 0
0.820000 0.000000 0
0.840000 0.000000 0
0.860000 0.000000 0
0.880000 0.000000 0
0.900000 0.000000 0
0.920000 0.000000 0
0.940000 0.000000 0
0.960000 0.000000 0
0.980000 0.000000 0
1.000000 0.000000 0
0.000000 0.020000 0
0.020000 0.020000 0
0.040000 0.020000 0
0.060000 0.020000 0
0.080000 0.020000 0
0.100000 0.020000 0
0.120000 0.020000 0
0.140000 0.020000 0
0.160000 0.020000 0
0.180000 0.020000 0
0.200000 0.020000 0
0.220000 0.020000 0
0.240000 0.020000 0
0.260000 0.020000 0
0.280000 0.020000 0
0.300000 0.020000 0
0.320000 0.020000 0
0.340000 0.020000 0
0.360000 0.020000 0
0.380000 0.020000 0
0.400000 0.020000 0
0.420000 0.020000 0
0.440000 0.020000 0
0.460000 0.020000 0
0.480000 0.020000 0
0.500000 0.020000 0
0.520000 0.020000 0
0.540000 0.020000 0
0.560000 0.020000 0
0.580000 0.020000 0
0.600000 0.020000 0
0.620000 0.020000 0
0.640000 0.020000 0
0.660000 0.020000 0
0.680000 0.020000 0
0.700000 0.020000 0
0.720000 0.020000 0
0.740000 0.020000 0
0.760000 0.020000 0
0.780000 0.020000 0
0.800000 0.020000 0
0.820000 0.020000 0
0.840000 0.020000 0
0.860000 0.020000 0
0.880000 0.020000 0
0.900000 0.020000 0
0.920000 0.020000 0
0.940000 0.020000 0
0.960000 0.020000 0
0.980000 0.020000 0
1.000000 0.020000 0
0.000000 0.040000 0
0.020000 0.040000 0
0.040000 0.040000 0
0.060000 0.040000 0
0.080000 0.040000 0
0.100000 0.040000 0
0.120000 0.040000 0
0.140000 0.040000 0
0.160000 0.040000 0
0.180000 0.040000 0
0.200000 0.040000 0
0.220000 0.040000 0
0.240000 0.040000 0
0.260000 0.040000 0
0.280000 0.040000 0
0.300000 0.040000 0
0.320000 0.040000 0
0.340000 0.040000 0
0.360000 0.040000 0
0.380000 0.040000 0
0.400000 0.040000 0
0.420000 0.040000 0
0.440000 0.040000 0
0.460000 0.040000 0
0.480000 0.040000 0
0.500000 0.040000 0
0.520000 0.040000 0
0.540000 0.040000 0
0.560000 0.040000 0
0.580000 0.040000 0
0.600000 0.040000 0
0.620000 0.040000 0
0.640000 0.040000 0
0.660000 0.040000 0
0.680000 0.040000 0
0.700000 0.040000 0
0.720000 0.040000 0
0.740000 0.040000 0
0.760000 0.040000 0
0.780000 0.040000 0
0.800000 0.040000 0
0.820000 0.040000 0
0.840000 0.040000 0
0.860000 0.040000 0
0.880000 0.040000 0
0.900000 0.040000 0
0.920000 0.040000 0
0.940000 0.040000 0
0.960000 0.040000 0
0.980000 0.040000 0
1.000000 0.040000 0
0.000000 0.060000 0
0.020000 0.060000 0
0.040000 0.060000 0
0.060000 0.060000 0
0.080000 0.060000 0
0.100000 0.060000 0
0.120000 0.060000 0
0.140000 0.060000 0
0.160000 0.060000 0
0.180000 0.060000 0
0.200000 0.060000 0
0.220000 0.060000 0
0.240000 0.060000 0
0.260000 0.060000 0
0.280000 0.060000 0
0.300000 0.060000 0
0.320000 0.060000 0
0.340000 0.060000 0
0.360000 0.060000 0
0.380000 0.060000 0
0.400000 0.060000 0
0.420000 0.060000 0
0.440000 0.060000 0
0.460000 0.060000 0
0.480000 0.060000 0
0.500000 0.060000 0
0.520000 0.060000 0
0.540000 0.060000 0
0.560000 0.060000 0
0.580000 0.060000 0
0.600000 0.060000 0
0.620000 0.060000 0
0.640000 0.060000 0
0.660000 0.060000 0
0.680000 0.060000 0
0.700000 0.060000 0
0.720000 0.060000 0
0.740000 0.060000 0
0.760000 0.060000 0
0.780000 0.060000 0
0.800000 0.060000 0
0.820000 0.060000 0
0.840000 0.060000 0
0.860000 0.060000 0
0.880000 0.060000 0
0.900000 0.060000 0
0.920000 0.060000 0
0.940000 0.060000 0
0.960000 0.060000 0
0.980000 0.060000 0
1.000000 0.060000 0
0.000000 0.080000 0
0.020000 0.080000 0
0.040000 0.080000 0
0.060000 0.080000 0
0.080000 0.080000 0
0.100000 0.080000 0
0.120000 0.080000 0
0.140000 0.080000 0
0.160000 0.080000 0
0.180000 0.080000 0
0.200000 0.080000 0
0.220000 0.080000 0
0.240000 0.080000 0
0.260000 0.080000 0
0.280000 0.080000 0
0.300000 0.080000 0
0.320000 0.080000 0
0.340000 0.080000 0
0.360000 0.080000 0
0.380000 0.080000 0
0.400000 0.080000 0
0.420000 0.080000 0
0.440000 0.080000 0
0.460000 0.080000 0
0.480000 0.080000 0
0.500000 0.080000 0
0.520000 0.080000 0
0.540000 0.080000 0
0.560000 0.080000 0
0.580000 0.080000 0
0.600000 0.080000 0
0.620000 0.080000 0
0.640000 0.080000 0
0.660000 0.080000 0
0.680000 0.080000 0
0.700000 0.080000 0
0.720000 0.080000 0
0.740000 0.080000 0
0.760000 0.080000 0
0.780000 0.080000 0
0.800000 0.080000 0
0.820000 0.080000 0
0.840000 0.080000 0
0.860000 0.080000 0
0.880000 0.080000 0
0.900000 0.080000 0
0.920000 0.080000 0
0.940000 0.080000 0
0.960000 0.080000 0
0.980000 0.080000 0
1.000000 0.080000 0
0.000000 0.100000 0
0.020000 0.100000 0
0.040000 0.100000 0
0.060000 0.100000 0
0.080000 0.100000 0
0.100000 0.100000 0
0.120000 0.100000 0
0.140000 0.100000 0
0.160000 0.100000 0
0.180000 0.100000 0
0.200000 0.100000 0
0.220000 0.100000 0
0.240000 0.100000 0
0.260000 0.100000 0
0.280000 0.100000 0
0.300000 0.100000 0
0.320000 0.100000 0
0.340000 0.100000 0
0.360000 0.100000 0
0.380000 0.100000 0
0.400000 0.100000 0
0.420000 0.100000 0
0.440000 0.100000 0
0.460000 0.100000 0
0.480000 0.100000 0
0.500000 0.100000 0
0.520000 0.100000 0
0.540000 0.100000 0
0.560000 0.100000 0
0.580000 0.100000 0
0.600000 0.100000 0
0.620000 0.100000 0
0.640000 0.100000 0
0.660000 0.100000 0
0.680000 0.100000 0
0.700000 0.100000 0
0.720000 0.100000 0
0.740000 0.100000 0
0.760000 0.100000 0
0.780000 0.100000 0
0.800000 0.100000 0
0.820000 0.100000 0
0.840000 0.100000 0
0.860000 0.100000 0
0.880000 0.100000 0
0.900000 0.100000 0
0.920000 0.100000 0
0.940000 0.100000 0
0.960000 0.100000 0
0.980000 0.100000 0
1.000000 0.100000 0
0.000000 0.120000 0
0.020000 0.120000 0
0.040000 0.120000 0
0.060000 0.120000 0
0.080000 0.120000 0
0.100000 0.120000 0
0.120000 0.120000 0
0.140000 0.120000 0
0.160000 0.120000 0
0.180000 0.120000 0
0.200000 0.120000 0
0.220000 0.120000 0
0.240000 0.120000 0
0.260000 0.120000 0
0.280000 0.120000 0
0.300000 0.120000 0
0.320000 0.120000 0
0.340000 0.120000 0
0.360000 0.120000 0
0.380000 0.120000 0
0.400000 0.120000 0
0.420000 0.120000 0
0.440000 0.120000 0
0.460000 0.120000 0
0.480000 0.120000 0
0.500000 0.120000 0
0.520000 0.120000 0
0.540000 0.120000 0
0.560000 0.120000 0
0.580000 0.120000 0
0.600000 0.120000 0
0.620000 0.120000 0
0.640000 0.120000 0
0.660000 0.120000 0
0.680000 0.120000 0
0.700000 0.120000 0
0.720000 0.120000 0
0.740000 0.120000 0
0.760000 0.120000 0
0.780000 0.120000 0
0.800000 0.120000 0
0.820000 0.120000 0
0.840000 0.120000 0
0.860000 0.120000 0
0.880000 0.120000 0
0.900000 0.120000 0
0.920000 0.120000 0
0.940000 0.120000 0
0.960000 0.120000 0
0.980000 0.120000 0
1.000000 0.120000 0
0.000000 0.140000 0
0.020000 0.140000 0
0.040000 0.140000 0
0.060000 0.140000 0
0.080000 0.140000 0
0.100000 0.140000 0
0.120000 0.140000 0
0.140000 0.140000 0
0.160000 0.140000 0
0.180000 0.140000 0
0.200000 0.140000 0
0.220000 0.140000 0
0.240000 0.140000 0
0.260000 0.140000 0
0.280000 0.140000 0
0.300000 0.140000 0
0.320000 0.140000 0
0.340000 0.140000 0
0.360000 0.140000 0
0.380000 0.140000 0
0.400000 0.140000 0
0.420000 0.140000 0
0.440000 0.140000 0
0.460000 0.140000 0
0.480000 0.140000 0
0.500000 0.140000 0
0.520000 0.140000 0
0.540000 0.140000 0
0.560000 0.140000 0
0.580000 0.140000 0
0.600000 0.140000 0
0.620000 0.140000 0
0.640000 0.140000 0
0.660000 0.140000 0
0.680000 0.140000 0
0.700000 0.140000 0
0.720000 0.140000 0
0.740000 0.140000 0
0.760000 0.140000 0
0.780000 0.140000 0
0.800000 0.140000 0
0.820000 0.140000 0
0.840000 0.140000 0
0.860000 0.140000 0
0.880000 0.140000 0
0.900000 0.140000 0
0.920000 0.140000 0
0.940000 0.140000 0
0.960000 0.140000 0
0.980000 0.140000 0
1.000000 0.140000 0
0.000000 0.160000 0
0.020000 0.160000 0
0.040000 0.160000 0
0.060000 0.160000 0
0.080000 0.160000 0
0.100000 0.160000 0
0.120000 0.160000 0
0.140000 0.160000 0
0.160000 0.160000 0
0.180000 0.160000 0
0.200000 0.160000 0
0.220000 0.160000 0
0.240000 0.160000 0
0.260000 0.160000 0
0.280000 0.160000 0
0.300000 0.160000 0
0.320000 0.160000 0
0.340000 0.160000 0
0.360000 0.160000 0
0.380000 0.160000 0
0.400000 0.160000 0
0.420000 0.160000 0
0.440000 0.160000 0
0.460000 0.160000 0
0.480000 0.160000 0
0.500000 0.160000 0
0.520000 0.160000 0
0.540000 0.160000 0
0.560000 0.160000 0
0.580000 0.160000 0
0.600000 0.160000 0
0.620000 0.160000 0
0.640000 0.160000 0
0.660000 0.160000 0
0.680000 0.160000 0
0.700000 0.160000 0
0.720000 0.160000 0
0.740000 0.160000 0
0.760000 0.160000 0
0.780000 0.160000 0
0.800000 0.160000 0
0.820000 0.160000 0
0.840000 0.160000 0
0.860000 0.160000 0
0.880000 0.160000 0
0.900000 0.160000 0
0.920000 0.160000 0
0.940000 0.160000 0
0.960000 0.160000 0
0.980000 0.160000 0
1.000000 0.160000 0
0.000000 0.180000 0
0.020000 0.180000 0
0.040000 0.180000 0
0.060000 0.180000 0
0.080000 0.180000 0
0.100000 0.180000 0
0.120000 0.180000 0
0.140000 0.180000 0
0.160000 0.180000 0
0.180000 0.180000 0
0.200000 0.180000 0
0.220000 0.180000 0
0.240000 0.180000 0
0.260000 0.180000 0
0.280000 0.180000 0
0.300000 0.180000 0
0.320000 0.180000 0
0.340000 0.180000 0
0.360000 0.180000 0
0.380000 0.180000 0
0.400000 0.180000 0
0.420000 0.180000 0
0.440000 0.180000 0
0.460000 0.180000 0
0.480000 0.180000 0
0.500000 0.180000 0
0.520000 0.180000 0
0.540000 0.180000 0
0.560000 0.180000 0
0.580000 0.180000 0
0.600000 0.180000 0
0.620000 0.180000 0
[...]
POINT_DATA 2601 

VECTORS velocity float
0.000000 0.000000 0
-0.000000 0.000000 0
0.000000 0.000000 0
0.000000 0.000000 0
0.000000 0.000000 0
-0.000000 0.000000 0
-0.000000 0.000000 0
-0.000000 0.000000 0
-0.000000 0.000000 0
0.000000 0.000000 0
0.000000 0.000000 0
0.000000 0.000000 0
0.000000 0.000000 0
-0.000000 0.000000 0
-0.000000 0.000000 0
-0.000000 0.000000 0
-0.000000 0.000000 0
0.000000 0.000000 0
0.000000 0.000000 0
0.000000 0.000000 0
0.000000 0.000000 0
-0.000000 0.000000 0
-0.000000 0.000000 0
-0.000000 0.000000 0
-0.000000 0.000000 0
-0.000000 0.000000 0
0.000000 0.000000 0
0.000000 0.000000 0
0.000000 0.000000 0
-0.000000 0.000000 0
-0.000000 0.000000 0
-0.000000 0.000000 0
-0.000000 0.000000 0
-0.000000 0.000000 0
-0.000000 0.000000 0
-0.000000 0.000000 0
-0.000000 0.000000 0
0.000000 0.000000 0
0.000000 0.000000 0
0.000000 0.000000 0
0.000000 0.000000 0
0.000000 0.000000 0
0.000000 0.000000 0
0.000000 0.000000 0
0.000000 0.000000 0
0.000000 0.000000 0
0.000000 0.000000 0
0.000000 0.000000 0
0.000000 0.000000 0
0.000000 0.000000 0
0.000000 0.000000 0
0.000000 -0.000000 0
0.000060 -0.000060 0
0.000082 -0.000023 0
-0.000014 0.000055 0
-0.000255 0.000144 0
-0.000645 0.000228 0
-0.001171 0.000301 0
-0.001815 0.000363 0
-0.002557 0.000412 0
-0.003376 0.000449 0
-0.004253 0.000476 0
-0.005171 0.000494 0
-0.006113 0.000502 0
-0.007063 0.000504 0
-0.008009 0.000498 0
-0.008937 0.000486 0
-0.009833 0.000468 0
-0.010687 0.000442 0
-0.011485 0.000410 0
-0.012215 0.000372 0
-0.012864 0.000326 0
-0.013420 0.000274 0
-0.013871 0.000216 0
-0.014206 0.000152 0
-0.014416 0.000082 0
-0.014492 0.000009 0
-0.014428 -0.000068 0
-0.014221 -0.000147 0
-0.013868 -0.000225 0
-0.013374 -0.000301 0
-0.012744 -0.000373 0
-0.011987 -0.000439 0
-0.011117 -0.000497 0
-0.010152 -0.000544 0
-0.009111 -0.000579 0
-0.008018 -0.000601 0
-0.006899 -0.000607 0
-0.005779 -0.000599 0
-0.004688 -0.000574 0
-0.003652 -0.000535 0
-0.002697 -0.000482 0
-0.001847 -0.000416 0
-0.001122 -0.000339 0
-0.000538 -0.000255 0
-0.000105 -0.000167 0
0.000174 -0.000079 0
0.000305 0.000002 0
0.000306 0.000067 0
0.000213 0.000100 0
0.000082 0.000082 0
0.000000 -0.000000 0
0.000000 0.000000 0
0.000024 -0.000081 0
-0.000075 0.000074 0
-0.000386 0.000337 0
-0.000944 0.000631 0
-0.001754 0.000915 0
-0.002797 0.001170 0
-0.004046 0.001386 0
-0.005468 0.001561 0
-0.007028 0.001697 0
-0.008692 0.001795 0
-0.010429 0.001859 0
-0.012208 0.001892 0
-0.014003 0.001896 0
-0.015786 0.001873 0
-0.017532 0.001825 0
-0.019217 0.001751 0
-0.020817 0.001652 0
-0.022309 0.001528 0
-0.023668 0.001379 0
-0.024873 0.001205 0
-0.025900 0.001007 0
-0.026729 0.000787 0
-0.027339 0.000546 0
-0.027715 0.000286 0
-0.027840 0.000012 0
-0.027706 -0.000272 0
-0.027306 -0.000560 0
-0.026640 -0.000847 0
-0.025714 -0.001125 0
-0.024538 -0.001387 0
-0.023133 -0.001626 0
-0.021521 -0.001835 0
-0.019735 -0.002006 0
-0.017811 -0.002134 0
-0.015790 -0.002213 0
-0.013718 -0.002239 0
-0.011644 -0.002211 0
-0.009615 -0.002128 0
-0.007681 -0.001991 0
-0.005887 -0.001805 0
-0.004276 -0.001575 0
-0.002882 -0.001309 0
-0.001734 -0.001017 0
-0.000848 -0.000712 0
-0.000229 -0.000410 0
0.000133 -0.000132 0
0.000269 0.000092 0
0.000232 0.000224 0
0.000103 0.000213 0
0.000000 -0.000000 0
0.000000 0.000000 0
-0.000056 0.000016 0
-0.000350 0.000387 0
-0.000949 0.000924 0
-0.001879 0.001511 0
-0.003139 0.002081 0
-0.004705 0.002594 0
-0.006541 0.003034 0
-0.008605 0.003394 0
-0.010852 0.003673 0
-0.013239 0.003877 0
-0.015722 0.004010 0
-0.018260 0.004076 0
-0.020814 0.004081 0
-0.023347 0.004027 0
-0.025825 0.003918 0
-0.028211 0.003753 0
-0.030473 0.003534 0
-0.032576 0.003262 0
-0.034488 0.002936 0
-0.036177 0.002558 0
-0.037613 0.002130 0
-0.038765 0.001655 0
-0.039608 0.001137 0
-0.040119 0.000583 0
-0.040280 -0.000000 0
-0.040078 -0.000603 0
-0.039505 -0.001212 0
-0.038563 -0.001817 0
-0.037259 -0.002403 0
-0.035611 -0.002954 0
-0.033644 -0.003456 0
-0.031392 -0.003895 0
-0.028897 -0.004255 0
-0.026209 -0.004524 0
-0.023384 -0.004693 0
-0.020484 -0.004754 0
-0.017573 -0.004702 0
-0.014716 -0.004537 0
-0.011980 -0.004263 0
-0.009426 -0.003887 0
-0.007110 -0.003421 0
-0.005080 -0.002881 0
-0.003374 -0.002290 0
-0.002014 -0.001672 0
-0.001007 -0.001060 0
-0.000343 -0.000496 0
0.000014 -0.000032 0
0.000123 0.000267 0
0.000076 0.000314 0
0.000000 0.000000 0
0.000000 0.000000 0
-0.000154 0.000268 0
-0.000677 0.000966 0
-0.001604 0.001866 0
-0.002942 0.002822 0
-0.004675 0.003741 0
-0.006770 0.004572 0
-0.009185 0.005286 0
-0.011868 0.005873 0
-0.014767 0.006330 0
-0.017829 0.006664 0
-0.021003 0.006879 0
-0.024238 0.006984 0
-0.027487 0.006984 0
-0.030704 0.006884 0
-0.033844 0.006688 0
-0.036864 0.006399 0
-0.039721 0.006016 0
-0.042373 0.005543 0
-0.044779 0.004980 0
-0.046901 0.004329 0
-0.048699 0.003595 0
-0.050139 0.002782 0
-0.051189 0.001900 0
-0.051822 0.000958 0
-0.052016 -0.000030 0
-0.051755 -0.001047 0
-0.051033 -0.002075 0
-0.049851 -0.003092 0
-0.048220 -0.004076 0
-0.046161 -0.005002 0
-0.043704 -0.005846 0
-0.040892 -0.006582 0
-0.037774 -0.007189 0
-0.034413 -0.007647 0
-0.030875 -0.007938 0
-0.027235 -0.008051 0
-0.023570 -0.007978 0
-0.019960 -0.007720 0
-0.016485 -0.007281 0
-0.013219 -0.006675 0
-0.010231 -0.005921 0
-0.007580 -0.005046 0
-0.005311 -0.004084 0
-0.003455 -0.003078 0
-0.002024 -0.002080 0
-0.001008 -0.001153 0
-0.000373 -0.000375 0
-0.000058 0.000161 0
0.000026 0.000336 0
0.000000 0.000000 0
0.000000 -0.000000 0
-0.000254 0.000692 0
-0.001021 0.001837 0
-0.002297 0.003189 0
-0.004060 0.004583 0
-0.006280 0.005910 0
-0.008909 0.007104 0
-0.011896 0.008131 0
-0.015181 0.008975 0
-0.018706 0.009634 0
-0.022409 0.010113 0
-0.026232 0.010419 0
-0.030118 0.010561 0
-0.034012 0.010548 0
-0.037860 0.010385 0
-0.041610 0.010077 0
-0.045211 0.009629 0
-0.048614 0.009043 0
-0.051768 0.008320 0
-0.054627 0.007464 0
-0.057145 0.006478 0
-0.059278 0.005369 0
-0.060985 0.004145 0
-0.062230 0.002820 0
-0.062982 0.001409 0
-0.063217 -0.000067 0
-0.062916 -0.001585 0
-0.062073 -0.003116 0
-0.060690 -0.004630 0
-0.058777 -0.006093 0
-0.056360 -0.007470 0
-0.053474 -0.008726 0
-0.050166 -0.009824 0
-0.046494 -0.010733 0
-0.042527 -0.011424 0
-0.038341 -0.011871 0
-0.034022 -0.012059 0
-0.029659 -0.011976 0
-0.025343 -0.011622 0
-0.021165 -0.011004 0
-0.017213 -0.010141 0
-0.013566 -0.009060 0
-0.010294 -0.007801 0
-0.007452 -0.006414 0
-0.005078 -0.004958 0
-0.003191 -0.003508 0
-0.001786 -0.002148 0
-0.000833 -0.000982 0
-0.000277 -0.000132 0
-0.000036 0.000256 0
0.000000 0.000000 0
0.000000 -0.000000 0
-0.000353 0.001289 0
-0.001366 0.003008 0
-0.002994 0.004906 0
-0.005190 0.006806 0
-0.007900 0.008591 0
-0.011063 0.010188 0
-0.014615 0.011558 0
-0.018489 0.012682 0
-0.022617 0.013558 0
-0.026934 0.014191 0
-0.031375 0.014589 0
-0.035876 0.014765 0
-0.040376 0.014726 0
-0.044815 0.014483 0
-0.049135 0.014040 0
-0.053279 0.013402 0
-0.057191 0.012573 0
-0.060816 0.011557 0
-0.064101 0.010357 0
-0.066994 0.008980 0
-0.069446 0.007435 0
-0.071413 0.005735 0
-0.072854 0.003897 0
-0.073735 0.001945 0
-0.074027 -0.000095 0
-0.073712 -0.002190 0
-0.072781 -0.004302 0
-0.071235 -0.006389 0
-0.069087 -0.008406 0
-0.066362 -0.010305 0
-0.063099 -0.012040 0
-0.059349 -0.013562 0
-0.055176 -0.014828 0
-0.050653 -0.015799 0
-0.045866 -0.016442 0
-0.040909 -0.016733 0
-0.035880 -0.016658 0
-0.030883 -0.016214 0
-0.026019 -0.015411 0
-0.021388 -0.014274 0
-0.017080 -0.012840 0
-0.013176 -0.011160 0
-0.009742 -0.009299 0
-0.006826 -0.007339 0
-0.004455 -0.005373 0
-0.002631 -0.003512 0
-0.001333 -0.001884 0
-0.000514 -0.000636 0
-0.000101 0.000059 0
0.000000 0.000000 0
0.000000 -0.000000 0
-0.000448 0.002057 0
-0.001702 0.004478 0
-0.003680 0.007015 0
-0.006306 0.009490 0
-0.009502 0.011782 0
-0.013192 0.013818 0
-0.017299 0.015556 0
-0.021748 0.016977 0
-0.026462 0.018080 0
-0.031371 0.018871 0
-0.036403 0.019361 0
-0.041490 0.019562 0
-0.046565 0.019486 0
-0.051565 0.019144 0
-0.056426 0.018542 0
-0.061085 0.017685 0
-0.065482 0.016580 0
-0.069558 0.015230 0
-0.073253 0.013641 0
-0.076512 0.011823 0
-0.079282 0.009788 0
-0.081513 0.007553 0
-0.083161 0.005141 0
-0.084189 0.002582 0
-0.084565 -0.000089 0
-0.084268 -0.002831 0
-0.083287 -0.005594 0
-0.081621 -0.008325 0
-0.079283 -0.010966 0
-0.076298 -0.013458 0
-0.072706 -0.015738 0
-0.068561 -0.017748 0
-0.063928 -0.019430 0
-0.058888 -0.020733 0
-0.053533 -0.021615 0
-0.047963 -0.022045 0
-0.042287 -0.022002 0
-0.036617 -0.021483 0
-0.031068 -0.020500 0
-0.025749 -0.019080 0
-0.020765 -0.017272 0
-0.016209 -0.015139 0
-0.012158 -0.012764 0
-0.008672 -0.010246 0
-0.005788 -0.007703 0
-0.003520 -0.005270 0
-0.001856 -0.003099 0
-0.000758 -0.001364 0
-0.000166 -0.000258 0
0.000000 0.000000 0
0.000000 -0.000000 0
-0.000539 0.002991 0
-0.002025 0.006241 0
-0.004344 0.009510 0
-0.007390 0.012628 0
-0.011064 0.015477 0
-0.015270 0.017985 0
-0.019919 0.020113 0
-0.024926 0.021845 0
-0.030209 0.023181 0
-0.035688 0.024131 0
-0.041289 0.024708 0
-0.046938 0.024927 0
-0.052566 0.024802 0
-0.058103 0.024343 0
-0.063482 0.023560 0
-0.068638 0.022459 0
-0.073505 0.021046 0
-0.078020 0.019327 0
-0.082121 0.017311 0
-0.085747 0.015009 0
-0.088842 0.012436 0
-0.091351 0.009614 0
-0.093228 0.006573 0
-0.094431 0.003348 0
-0.094925 -0.000016 0
-0.094685 -0.003468 0
-0.093696 -0.006949 0
-0.091957 -0.010393 0
-0.089477 -0.013728 0
-0.086280 -0.016882 0
-0.082405 -0.019777 0
-0.077907 -0.022340 0
-0.072853 -0.024501 0
-0.067327 -0.026194 0
-0.061426 -0.027368 0
-0.055258 -0.027979 0
-0.048940 -0.028004 0
-0.042595 -0.027433 0
-0.036348 -0.026279 0
-0.030323 -0.024577 0
-0.024638 -0.022380 0
-0.019399 -0.019767 0
-0.014699 -0.016836 0
-0.010610 -0.013709 0
-0.007184 -0.010525 0
-0.004445 -0.007444 0
-0.002395 -0.004645 0
-0.001007 -0.002325 0
-0.000232 -0.000699 0
0.000000 0.000000 0
0.000000 -0.000000 0
-0.000625 0.004083 0
-0.002334 0.008285 0
-0.004982 0.012380 0
-0.008434 0.016208 0
-0.012569 0.019661 0
-0.017276 0.022674 0
-0.022451 0.025212 0
-0.027999 0.027267 0
-0.033831 0.028842 0
-0.039861 0.029951 0
-0.046010 0.030611 0
-0.052201 0.030839 0
-0.058360 0.030651 0
-0.064416 0.030060 0
-0.070299 0.029077 0
-0.075939 0.027708 0
-0.081268 0.025962 0
-0.086219 0.023845 0
-0.090728 0.021368 0
-0.094730 0.018544 0
-0.098165 0.015393 0
-0.100975 0.011940 0
-0.103110 0.008221 0
-0.104523 0.004278 0
-0.105175 0.000164 0
-0.105037 -0.004059 0
-0.104091 -0.008321 0
-0.102329 -0.012544 0
-0.099759 -0.016643 0
-0.096399 -0.020529 0
-0.092289 -0.024112 0
-0.087479 -0.027301 0
-0.082039 -0.030009 0
-0.076055 -0.032160 0
-0.069626 -0.033684 0
-0.062868 -0.034531 0
-0.055906 -0.034666 0
-0.048874 -0.034075 0
-0.041909 -0.032771 0
-0.035149 -0.030790 0
-0.028728 -0.028196 0
-0.022769 -0.025078 0
-0.017380 -0.021552 0
-0.012651 -0.017761 0
-0.008648 -0.013868 0
-0.005410 -0.010058 0
-0.002953 -0.006538 0
-0.001261 -0.003528 0
-0.000297 -0.001265 0
0.000000 0.000000 0
0.000000 0.000000 0
-0.000706 0.005326 0
-0.002628 0.010598 0
-0.005589 0.015609 0
-0.009430 0.020214 0
-0.014008 0.024318 0
-0.019196 0.027867 0
-0.024877 0.030836 0
-0.030946 0.033225 0
-0.037305 0.035043 0
-0.043866 0.036310 0
-0.050543 0.037048 0
-0.057256 0.037278 0
-0.063930 0.037017 0
-0.070489 0.036282 0
-0.076863 0.035082 0
-0.082979 0.033427 0
-0.088766 0.031326 0
-0.094157 0.028787 0
-0.099081 0.025821 0
-0.103474 0.022445 0
-0.107271 0.018681 0
-0.110411 0.014560 0
-0.112839 0.010120 0
-0.114503 0.005413 0
-0.115361 0.000499 0
-0.115377 -0.004552 0
-0.114527 -0.009657 0
-0.112799 -0.014725 0
-0.110194 -0.019658 0
-0.106726 -0.024352 0
-0.102429 -0.028698 0
-0.097352 -0.032590 0
-0.091563 -0.035925 0
-0.085147 -0.038607 0
-0.078208 -0.040554 0
-0.070866 -0.041699 0
-0.063254 -0.041998 0
-0.055517 -0.041430 0
-0.047807 -0.040004 0
-0.040278 -0.037757 0
-0.033080 -0.034760 0
-0.026355 -0.031114 0
-0.020231 -0.026954 0
-0.014817 -0.022441 0
-0.010196 -0.017765 0
-0.006426 -0.013139 0
-0.003536 -0.008795 0
-0.001525 -0.004981 0
-0.000363 -0.001960 0
0.000000 0.000000 0
0.000000 0.000000 0
-0.000782 0.006711 0
-0.002904 0.013167 0
-0.006161 0.019181 0
-0.010371 0.024627 0
-0.015370 0.029427 0
-0.021016 0.033543 0
-0.027180 0.036963 0
-0.033747 0.039696 0
-0.040611 0.041762 0
-0.047680 0.043188 0
-0.054863 0.044001 0
-0.062080 0.044226 0
-0.069251 0.043885 0
-0.076300 0.042994 0
-0.083154 0.041566 0
-0.089740 0.039612 0
-0.095986 0.037140 0
-0.101820 0.034160 0
-0.107173 0.030686 0
-0.111975 0.026734 0
-0.116160 0.022330 0
-0.119663 0.017508 0
-0.122423 0.012313 0
-0.124385 0.006800 0
-0.125500 0.001038 0
-0.125727 -0.004892 0
-0.125033 -0.010899 0
-0.123401 -0.016878 0
-0.120822 -0.022716 0
-0.117305 -0.028294 0
-0.112877 -0.033486 0
-0.107582 -0.038167 0
-0.101483 -0.042214 0
-0.094666 -0.045514 0
-0.087236 -0.047965 0
-0.079316 -0.049485 0
-0.071048 -0.050014 0
-0.062589 -0.049522 0
-0.054104 -0.048011 0
-0.045765 -0.045518 0
-0.037743 -0.042119 0
-0.030200 -0.037926 0
-0.023288 -0.033091 0
-0.017136 -0.027796 0
-0.011851 -0.022258 0
-0.007508 -0.016718 0
-0.004154 -0.011439 0
-0.001802 -0.006700 0
-0.000433 -0.002790 0
0.000000 0.000000 0
0.000000 0.000000 0
-0.000854 0.008230 0
-0.003163 0.015976 0
-0.006697 0.023075 0
-0.011252 0.029424 0
-0.016648 0.034964 0
-0.022726 0.039677 0
-0.029346 0.043567 0
-0.036383 0.046656 0
-0.043728 0.048976 0
-0.051279 0.050562 0
-0.058947 0.051448 0
-0.066646 0.051665 0
-0.074296 0.051238 0
-0.081821 0.050185 0
-0.089145 0.048522 0
-0.096195 0.046259 0
-0.102899 0.043406 0
-0.109184 0.039974 0
-0.114979 0.035977 0
-0.120211 0.031432 0
-0.124811 0.026369 0
-0.128711 0.020823 0
-0.131847 0.014843 0
-0.134156 0.008490 0
-0.135584 0.001840 0
-0.136082 -0.005019 0
-0.135610 -0.011983 0
-0.134139 -0.018937 0
-0.131654 -0.025754 0
-0.128154 -0.032296 0
-0.123656 -0.038421 0
-0.118198 -0.043984 0
-0.111838 -0.048840 0
-0.104657 -0.052855 0
-0.096760 -0.055904 0
-0.088274 -0.057887 0
-0.079348 -0.058725 0
-0.070149 -0.058375 0
-0.060859 -0.056828 0
-0.051668 -0.054119 0
-0.042770 -0.050325 0
-0.034353 -0.045569 0
-0.026592 -0.040018 0
-0.019644 -0.033879 0
-0.013639 -0.027393 0
-0.008676 -0.020835 0
-0.004820 -0.014501 0
-0.002100 -0.008703 0
-0.000507 -0.003762 0
0.000000 -0.000000 0
0.000000 0.000000 0
-0.000920 0.009873 0
-0.003401 0.019009 0
-0.007192 0.027270 0
-0.012068 0.034579 0
-0.017833 0.040902 0
-0.024313 0.046241 0
-0.031359 0.050620 0
-0.038838 0.054077 0
-0.046633 0.056658 0
-0.054640 0.058407 0
-0.062766 0.059368 0
-0.070925 0.059575 0
-0.079034 0.059059 0
-0.087018 0.057843 0
-0.094800 0.055941 0
-0.102309 0.053366 0
-0.109470 0.050129 0
-0.116211 0.046239 0
-0.122458 0.041712 0
-0.128140 0.036566 0
-0.133183 0.030830 0
-0.137516 0.024544 0
-0.141070 0.017757 0
-0.143777 0.010537 0
-0.145575 0.002964 0
-0.146407 -0.004867 0
-0.146224 -0.012842 0
-0.144987 -0.020834 0
-0.142669 -0.028701 0
-0.139259 -0.036291 0
-0.134762 -0.043441 0
-0.129206 -0.049985 0
-0.122641 -0.055756 0
-0.115143 -0.060593 0
-0.106812 -0.064349 0
-0.097779 -0.066897 0
-0.088199 -0.068139 0
-0.078248 -0.068011 0
-0.068126 -0.066491 0
-0.058043 -0.063606 0
-0.048217 -0.059434 0
-0.038864 -0.054105 0
-0.030189 -0.047800 0
-0.022378 -0.040749 0
-0.015590 -0.033226 0
-0.009951 -0.025537 0
-0.005547 -0.018016 0
-0.002425 -0.011014 0
-0.000588 -0.004890 0
0.000000 -0.000000 0
0.000000 -0.000000 0
-0.000980 0.011631 0
-0.003619 0.022248 0
-0.007643 0.031742 0
-0.012813 0.040065 0
-0.018915 0.047210 0
-0.025766 0.053203 0
-0.033205 0.058091 0
-0.041091 0.061929 0
-0.049305 0.064778 0
-0.057737 0.066696 0
-0.066292 0.067733 0
-0.074883 0.067933 0
-0.083429 0.067331 0
-0.091851 0.065951 0
-0.100077 0.063813 0
-0.108033 0.060928 0
-0.115647 0.057308 0
-0.122846 0.052963 0
-0.129556 0.047906 0
-0.135703 0.042157 0
-0.141213 0.035745 0
-0.146012 0.028709 0
-0.150025 0.021103 0
-0.153179 0.012995 0
-0.155404 0.004470 0
-0.156635 -0.004369 0
-0.156813 -0.013403 0
-0.155885 -0.022492 0
-0.153813 -0.031482 0
-0.150572 -0.040203 0
-0.146155 -0.048474 0
-0.140577 -0.056105 0
-0.133875 -0.062904 0
-0.126117 -0.068683 0
-0.117400 -0.073268 0
-0.107852 -0.076501 0
-0.097632 -0.078256 0
-0.086927 -0.078447 0
-0.075952 -0.077033 0
-0.064940 -0.074027 0
-0.054134 -0.069504 0
-0.043782 -0.063598 0
-0.034123 -0.056504 0
-0.025376 -0.048477 0
-0.017735 -0.039820 0
-0.011355 -0.030878 0
-0.006349 -0.022027 0
-0.002784 -0.013663 0
-0.000677 -0.006187 0
0.000000 -0.000000 0
0.000000 -0.000000 0
-0.001034 0.013492 0
-0.003813 0.025672 0
-0.008047 0.036465 0
-0.013481 0.045851 0
-0.019887 0.053855 0
-0.027072 0.060530 0
-0.034867 0.065945 0
-0.043125 0.070177 0
-0.051720 0.073303 0
-0.060542 0.075395 0
-0.069493 0.076514 0
-0.078486 0.076711 0
-0.087440 0.076028 0
-0.096277 0.074491 0
-0.104926 0.072123 0
-0.113314 0.068936 0
-0.121371 0.064941 0
-0.129023 0.060148 0
-0.136199 0.054569 0
-0.142823 0.048224 0
-0.148819 0.041139 0
-0.154111 0.033355 0
-0.158619 0.024924 0
-0.162266 0.015917 0
-0.164973 0.006420 0
-0.166666 -0.003458 0
-0.167274 -0.013592 0
-0.166734 -0.023833 0
-0.164992 -0.034014 0
-0.162007 -0.043949 0
-0.157758 -0.053437 0
-0.152243 -0.062265 0
-0.145487 -0.070215 0
-0.137543 -0.077067 0
-0.128502 -0.082614 0
-0.118485 -0.086666 0
-0.107655 -0.089064 0
-0.096207 -0.089690 0
-0.084369 -0.088479 0
-0.072397 -0.085424 0
-0.060565 -0.080592 0
-0.049152 -0.074116 0
-0.038436 -0.066206 0
-0.028676 -0.057137 0
-0.020104 -0.047247 0
-0.012911 -0.036923 0
-0.007241 -0.026587 0
-0.003185 -0.016686 0
-0.000778 -0.007674 0
0.000000 -0.000000 0
0.000000 -0.000000 0
-0.001081 0.015444 0
-0.003982 0.029262 0
-0.008400 0.041410 0
-0.014065 0.051905 0
-0.020740 0.060801 0
-0.028220 0.068182 0
-0.036330 0.074143 0
-0.044918 0.078782 0
-0.053855 0.082196 0
-0.063027 0.084469 0
-0.072337 0.085677 0
-0.081696 0.085879 0
-0.091023 0.085122 0
-0.100246 0.083438 0
-0.109291 0.080850 0
-0.118089 0.077373 0
-0.126571 0.073017 0
-0.134666 0.067791 0
-0.142302 0.061706 0
-0.149405 0.054778 0
-0.155899 0.047033 0
-0.161703 0.038509 0
-0.166735 0.029258 0
-0.170913 0.019349 0
-0.174151 0.008871 0
-0.176365 -0.002068 0
-0.177473 -0.013335 0
-0.177399 -0.024774 0
-0.176073 -0.036209 0
-0.173437 -0.047437 0
-0.169453 -0.058238 0
-0.164099 -0.068376 0
-0.157384 -0.077603 0
-0.149345 -0.085668 0
-0.140059 -0.092326 0
-0.129641 -0.097347 0
-0.118249 -0.100535 0
-0.106084 -0.101733 0
-0.093390 -0.100842 0
-0.080441 -0.097832 0
-0.067543 -0.092749 0
-0.055012 -0.085726 0
-0.043167 -0.076980 0
-0.032313 -0.066809 0
-0.022726 -0.055585 0
-0.014640 -0.043741 0
-0.008236 -0.031754 0
-0.003634 -0.020126 0
-0.000891 -0.009372 0
0.000000 -0.000000 0
0.000000 -0.000000 0
-0.001120 0.017474 0
-0.004125 0.032993 0
-0.008699 0.046548 0
-0.014560 0.058190 0
-0.021464 0.068010 0
-0.029197 0.076120 0
-0.037579 0.082643 0
-0.046453 0.087702 0
-0.055687 0.091413 0
-0.065165 0.093877 0
-0.074789 0.095182 0
-0.084472 0.095398 0
-0.094134 0.094577 0
-0.103703 0.092758 0
-0.113109 0.089966 0
-0.122287 0.086216 0
-0.131168 0.081518 0
-0.139684 0.075879 0
-0.147766 0.069309 0
-0.155341 0.061821 0
-0.162331 0.053437 0
-0.168656 0.044192 0
-0.174232 0.034135 0
-0.178970 0.023333 0
-0.182779 0.011872 0
-0.185566 -0.000136 0
-0.187239 -0.012558 0
-0.187705 -0.025234 0
-0.186881 -0.037975 0
-0.184692 -0.050569 0
-0.181076 -0.062775 0
-0.175993 -0.074334 0
-0.169430 -0.084969 0
-0.161404 -0.094392 0
-0.151974 -0.102319 0
-0.141242 -0.108477 0
-0.129360 -0.112620 0
-0.116530 -0.114549 0
-0.103004 -0.114121 0
-0.089079 -0.111271 0
-0.075089 -0.106021 0
-0.061390 -0.098492 0
-0.048348 -0.088904 0
-0.036319 -0.077577 0
-0.025630 -0.064920 0
-0.016565 -0.051413 0
-0.009349 -0.037593 0
-0.004139 -0.024031 0
-0.001019 -0.011308 0
0.000000 -0.000000 0
0.000000 0.000000 0
-0.001151 0.019569 0
-0.004240 0.036841 0
-0.008939 0.051845 0
-0.014961 0.064669 0
-0.022052 0.075438 0
-0.029994 0.084298 0
-0.038600 0.091399 0
-0.047711 0.096890 0
-0.057192 0.100908 0
-0.066927 0.103572 0
-0.076817 0.104984 0
-0.086775 0.105224 0
-0.096724 0.104352 0
-0.106594 0.102413 0
-0.116318 0.099434 0