# vtk DataFile Version 2.0
generated by CFD-lab course output (written by Tobias Neckel) 
ASCII

DATASET STRUCTURED_GRID
DIMENSIONS  51 51 1 
POINTS 2601 float

0.000000 0.000000 0
0.020000 0.000000 0
0.040000 0.000000 0
0.060000 0.000000 0
0.080000 0.000000 0
0.100000 0.000000 0
0.120000 0.000000 0
0.140000 0.000000 0
0.160000 0.000000 0
0.180000 0.000000 0
0.200000 0.000000 0
0.220000 0.000000 0
0.240000 0.000000 0
0.260000 0.000000 0
0.280000 0.000000 0
0.300000 0.000000 0
0.320000 0.000000 0
0.340000 0.000000 0
0.360000 0.000000 0
0.380000 0.000000 0
0.400000 0.000000 0
0.420000 0.000000 0
0.440000 0.000000 0
0.460000 0.000000 0
0.480000 0.000000 0
0.500000 0.000000 0
0.520000 0.000000 0
0.540000 0.000000 0
0.560000 0.000000 0
0.580000 0.000000 0
0.600000 0.000000 0
0.620000 0.000000 0
0.640000 0.000000 0
0.660000 0.000000 0
0.680000 0.000000 0
0.700000 0.000000 0
0.720000 0.000000 0
0.740000 0.000000 0
0.760000 0.000000 0
0.780000 0.000000 0
0.800000 0.000000 0
0.820000 0.000000 0
0.840000 0.000000 0
0.860000 0.000000 0
0.880000 0.000000 0
0.900000 0.000000 0
0.920000 0.000000 0
0.940000 0.000000 0
0.960000 0.000000 0
0.980000 0.000000 0
1.000000 0.000000 0
0.000000 0.020000 0
0.020000 0.020000 0
0.040000 0.020000 0
0.060000 0.020000 0
0.080000 0.020000 0
0.100000 0.020000 0
0.120000 0.020000 0
0.140000 0.020000 0
0.160000 0.020000 0
0.180000 0.020000 0
0.200000 0.020000 0
0.220000 0.020000 0
0.240000 0.020000 0
0.260000 0.020000 0
0.280000 0.020000 0
0.300000 0.020000 0
0.320000 0.020000 0
0.340000 0.020000 0
0.360000 0.020000 0
0.380000 0.020000 0
0.400000 0.020000 0
0.420000 0.020000 0
0.440000 0.020000 0
0.460000 0.020000 0
0.480000 0.020000 0
0.500000 0.020000 0
0.520000 0.020000 0
0.540000 0.020000 0
0.560000 0.020000 0
0.580000 0.020000 0
0.600000 0.020000 0
0.620000 0.020000 0
0.640000 0.020000 0
0.660000 0.020000 0
0.680000 0.020000 0
0.700000 0.020000 0
0.720000 0.020000 0
0.740000 0.020000 0
0.760000 0.020000 0
0.780000 0.020000 0
0.800000 0.020000 0
0.820000 0.020000 0
0.840000 0.020000 0
0.860000 0.020000 0
0.880000 0.020000 0
0.900000 0.020000 0
0.920000 0.020000 0
0.940000 0.020000 0
0.960000 0.020000 0
0.980000 0.020000 0
1.000000 0.020000 0
0.000000 0.040000 0
0.020000 0.040000 0
0.040000 0.040000 0
0.060000 0.040000 0
0.080000 0.040000 0
0.100000 0.040000 0
0.120000 0.040000 0
0.140000 0.040000 0
0.160000 0.040000 0
0.180000 0.040000 0
0.200000 0.040000 0
0.220000 0.040000 0
0.240000 0.040000 0
0.260000 0.040000 0
0.280000 0.040000 0
0.300000 0.040000 0
0.320000 0.040000 0
0.340000 0.040000 0
0.360000 0.040000 0
0.380000 0.040000 0
0.400000 0.040000 0
0.420000 0.040000 0
0.440000 0.040000 0
0.460000 0.040000 0
0.480000 0.040000 0
0.500000 0.040000 0
0.520000 0.040000 0
0.540000 0.040000 0
0.560000 0.040000 0
0.580000 0.040000 0
0.600000 0.040000 0
0.620000 0.040000 0
0.640000 0.040000 0
0.660000 0.040000 0
0.680000 0.040000 0
0.700000 0.040000 0
0.720000 0.040000 0
0.740000 0.040000 0
0.760000 0.040000 0
0.780000 0.040000 0
0.800000 0.040000 0
0.820000 0.040000 0
0.840000 0.040000 0
0.860000 0.040000 0
0.880000 0.040000 0
0.900000 0.040000 0
0.920000 0.040000 0
0.940000 0.040000 0
0.960000 0.040000 0
0.980000 0.040000 0
1.000000 0.040000 0
0.000000 0.060000 0
0.020000 0.060000 0
0.040000 0.060000 0
0.060000 0.060000 0
0.080000 0.060000 0
0.100000 0.060000 0
0.120000 0.060000 0
0.140000 0.060000 0
0.160000 0.060000 0
0.180000 0.060000 0
0.200000 0.060000 0
0.220000 0.060000 0
0.240000 0.060000 0
0.260000 0.060000 0
0.280000 0.060000 0
0.300000 0.060000 0
0.320000 0.060000 0
0.340000 0.060000 0
0.360000 0.060000 0
0.380000 0.060000 0
0.400000 0.060000 0
0.420000 0.060000 0
0.440000 0.060000 0
0.460000 0.060000 0
0.480000 0.060000 0
0.500000 0.060000 0
0.520000 0.060000 0
0.540000 0.060000 0
0.560000 0.060000 0
0.580000 0.060000 0
0.600000 0.060000 0
0.620000 0.060000 0
0.640000 0.060000 0
0.660000 0.060000 0
0.680000 0.060000 0
0.700000 0.060000 0
0.720000 0.060000 0
0.740000 0.060000 0
0.760000 0.060000 0
0.780000 0.060000 0
0.800000 0.060000 0
0.820000 0.060000 0
0.840000 0.060000 0
0.860000 0.060000 0
0.880000 0.060000 0
0.900000 0.060000 0
0.920000 0.060000 0
0.940000 0.060000 0
0.960000 0.060000 0
0.980000 0.060000 0
1.000000 0.060000 0
0.000000 0.080000 0
0.020000 0.080000 0
0.040000 0.080000 0
0.060000 0.080000 0
0.080000 0.080000 0
0.100000 0.080000 0
0.120000 0.080000 0
0.140000 0.080000 0
0.160000 0.080000 0
0.180000 0.080000 0
0.200000 0.080000 0
0.220000 0.080000 0
0.240000 0.080000 0
0.260000 0.080000 0
0.280000 0.080000 0
0.300000 0.080000 0
0.320000 0.080000 0
0.340000 0.080000 0
0.360000 0.080000 0
0.380000 0.080000 0
0.400000 0.080000 0
0.420000 0.080000 0
0.440000 0.080000 0
0.460000 0.080000 0
0.480000 0.080000 0
0.500000 0.080000 0
0.520000 0.080000 0
0.540000 0.080000 0
0.560000 0.080000 0
0.580000 0.080000 0
0.600000 0.080000 0
0.620000 0.080000 0
0.640000 0.080000 0
0.660000 0.080000 0
0.680000 0.080000 0
0.700000 0.080000 0
0.720000 0.080000 0
0.740000 0.080000 0
0.760000 0.080000 0
0.780000 0.080000 0
0.800000 0.080000 0
0.820000 0.080000 0
0.840000 0.080000 0
0.860000 0.080000 0
0.880000 0.080000 0
0.900000 0.080000 0
0.920000 0.080000 0
0.940000 0.080000 0
0.960000 0.080000 0
0.980000 0.080000 0
1.000000 0.080000 0
0.000000 0.100000 0
0.020000 0.100000 0
0.040000 0.100000 0
0.060000 0.100000 0
0.080000 0.100000 0
0.100000 0.100000 0
0.120000 0.100000 0
0.140000 0.100000 0
0.160000 0.100000 0
0.180000 0.100000 0
0.200000 0.100000 0
0.220000 0.100000 0
0.240000 0.100000 0
0.260000 0.100000 0
0.280000 0.100000 0
0.300000 0.100000 0
0.320000 0.100000 0
0.340000 0.100000 0
0.360000 0.100000 0
0.380000 0.100000 0
0.400000 0.100000 0
0.420000 0.100000 0
0.440000 0.100000 0
0.460000 0.100000 0
0.480000 0.100000 0
0.500000 0.100000 0
0.520000 0.100000 0
0.540000 0.100000 0
0.560000 0.100000 0
0.580000 0.100000 0
0.600000 0.100000 0
0.620000 0.100000 0
0.640000 0.100000 0
0.660000 0.100000 0
0.680000 0.100000 0
0.700000 0.100000 0
0.720000 0.100000 0
0.740000 0.100000 0
0.760000 0.100000 0
0.780000 0.100000 0
0.800000 0.100000 0
0.820000 0.100000 0
0.840000 0.100000 0
0.860000 0.100000 0
0.880000 0.100000 0
0.900000 0.100000 0
0.920000 0.100000 0
0.940000 0.100000 0
0.960000 0.100000 0
0.980000 0.100000 0
1.000000 0.100000 0
0.000000 0.120000 0
0.020000 0.120000 0
0.040000 0.120000 0
0.060000 0.120000 0
0.080000 0.120000 0
0.100000 0.120000 0
0.120000 0.120000 0
0.140000 0.120000 0
0.160000 0.120000 0
0.180000 0.120000 0
0.200000 0.120000 0
0.220000 0.120000 0
0.240000 0.120000 0
0.260000 0.120000 0
0.280000 0.120000 0
0.300000 0.120000 0
0.320000 0.120000 0
0.340000 0.120000 0
0.360000 0.120000 0
0.380000 0.120000 0
0.400000 0.120000 0
0.420000 0.120000 0
0.440000 0.120000 0
0.460000 0.120000 0
0.480000 0.120000 0
0.500000 0.120000 0
0.520000 0.120000 0
0.540000 0.120000 0
0.560000 0.120000 0
0.580000 0.120000 0
0.600000 0.120000 0
0.620000 0.120000 0
0.640000 0.120000 0
0.660000 0.120000 0
0.680000 0.120000 0
0.700000 0.120000 0
0.720000 0.120000 0
0.740000 0.120000 0
0.760000 0.120000 0
0.780000 0.120000 0
0.800000 0.120000 0
0.820000 0.120000 0
0.840000 0.120000 0
0.860000 0.120000 0
0.880000 0.120000 0
0.900000 0.120000 0
0.920000 0.120000 0
0.940000 0.120000 0
0.960000 0.120000 0
0.980000 0.120000 0
1.000000 0.120000 0
0.000000 0.140000 0
0.020000 0.140000 0
0.040000 0.140000 0
0.060000 0.140000 0
0.080000 0.140000 0
0.100000 0.140000 0
0.120000 0.140000 0
0.140000 0.140000 0
0.160000 0.140000 0
0.180000 0.140000 0
0.200000 0.140000 0
0.220000 0.140000 0
0.240000 0.140000 0
0.260000 0.140000 0
0.280000 0.140000 0
0.300000 0.140000 0
0.320000 0.140000 0
0.340000 0.140000 0
0.360000 0.140000 0
0.380000 0.140000 0
0.400000 0.140000 0
0.420000 0.140000 0
0.440000 0.140000 0
0.460000 0.140000 0
0.480000 0.140000 0
0.500000 0.140000 0
0.520000 0.140000 0
0.540000 0.140000 0
0.560000 0.140000 0
0.580000 0.140000 0
0.600000 0.140000 0
0.620000 0.140000 0
0.640000 0.140000 0
0.660000 0.140000 0
0.680000 0.140000 0
0.700000 0.140000 0
0.720000 0.140000 0
0.740000 0.140000 0
0.760000 0.140000 0
0.780000 0.140000 0
0.800000 0.140000 0
0.820000 0.140000 0
0.840000 0.140000 0
0.860000 0.140000 0
0.880000 0.140000 0
0.900000 0.140000 0
0.920000 0.140000 0
0.940000 0.140000 0
0.960000 0.140000 0
0.980000 0.140000 0
1.000000 0.140000 0
0.000000 0.160000 0
0.020000 0.160000 0
0.040000 0.160000 0
0.060000 0.160000 0
0.080000 0.160000 0
0.100000 0.160000 0
0.120000 0.160000 0
0.140000 0.160000 0
0.160000 0.160000 0
0.180000 0.160000 0
0.200000 0.160000 0
0.220000 0.160000 0
0.240000 0.160000 0
0.260000 0.160000 0
0.280000 0.160000 0
0.300000 0.160000 0
0.320000 0.160000 0
0.340000 0.160000 0
0.360000 0.160000 0
0.380000 0.160000 0
0.400000 0.160000 0
0.420000 0.160000 0
0.440000 0.160000 0
0.460000 0.160000 0
0.480000 0.160000 0
0.500000 0.160000 0
0.520000 0.160000 0
0.540000 0.160000 0
0.560000 0.160000 0
0.580000 0.160000 0
0.600000 0.160000 0
0.620000 0.160000 0
0.640000 0.160000 0
0.660000 0.160000 0
0.680000 0.160000 0
0.700000 0.160000 0
0.720000 0.160000 0
0.740000 0.160000 0
0.760000 0.160000 0
0.780000 0.160000 0
0.800000 0.160000 0
0.820000 0.160000 0
0.840000 0.160000 0
0.860000 0.160000 0
0.880000 0.160000 0
0.900000 0.160000 0
0.920000 0.160000 0
0.940000 0.160000 0
0.960000 0.160000 0
0.980000 0.160000 0
1.000000 0.160000 0
0.000000 0.180000 0
0.020000 0.180000 0
0.040000 0.180000 0
0.060000 0.180000 0
0.080000 0.180000 0
0.100000 0.180000 0
0.120000 0.180000 0
0.140000 0.180000 0
0.160000 0.180000 0
0.180000 0.180000 0
0.200000 0.180000 0
0.220000 0.180000 0
0.240000 0.180000 0
0.260000 0.180000 0
0.280000 0.180000 0
0.300000 0.180000 0
0.320000 0.180000 0
0.340000 0.180000 0
0.360000 0.180000 0
0.380000 0.180000 0
0.400000 0.180000 0
0.420000 0.180000 0
0.440000 0.180000 0
0.460000 0.180000 0
0.480000 0.180000 0
0.500000 0.180000 0
0.520000 0.180000 0
0.540000 0.180000 0
0.560000 0.180000 0
0.580000 0.180000 0
0.600000 0.180000 0
0.620000 0.180000 0
[...]
POINT_DATA 2601 

VECTORS velocity float
0.000000 0.000000 0
-0.000001 0.000000 0
-0.000001 0.000000 0
-0.000000 0.000000 0
0.000000 0.000000 0
0.000000 0.000000 0
0.000000 0.000000 0
0.000000 0.000000 0
-0.000000 0.000000 0
-0.000000 0.000000 0
-0.000000 0.000000 0
0.000000 0.000000 0
0.000000 0.000000 0
0.000000 0.000000 0
-0.000000 0.000000 0
-0.000000 0.000000 0
-0.000000 0.000000 0
-0.000000 0.000000 0
0.000000 0.000000 0
0.000000 0.000000 0
0.000000 0.000000 0
0.000000 0.000000 0
-0.000000 0.000000 0
-0.000000 0.000000 0
-0.000000 0.000000 0
-0.000000 0.000000 0
-0.000000 0.000000 0
-0.000000 0.000000 0
0.000000 0.000000 0
0.000000 0.000000 0
0.000000 0.000000 0
-0.000000 0.000000 0
-0.000000 0.000000 0
-0.000000 0.000000 0
-0.000000 0.000000 0
-0.000000 0.000000 0
-0.000000 0.000000 0
-0.000000 0.000000 0
-0.000000 0.000000 0
0.000000 0.000000 0
0.000000 0.000000 0
0.000000 0.000000 0
0.000000 0.000000 0
0.000000 0.000000 0
0.000000 0.000000 0
0.000000 0.000000 0
0.000000 0.000000 0
0.000000 0.000000 0
0.000000 0.000000 0
-0.000000 0.000000 0
0.000000 0.000000 0
0.000000 -0.000001 0
0.000060 -0.000060 0
0.000081 -0.000023 0
-0.000014 0.000055 0
-0.000255 0.000144 0
-0.000645 0.000228 0
-0.001170 0.000302 0
-0.001814 0.000363 0
-0.002556 0.000411 0
-0.003374 0.000449 0
-0.004251 0.000476 0
-0.005168 0.000493 0
-0.006108 0.000502 0
-0.007058 0.000504 0
-0.008003 0.000498 0
-0.008930 0.000486 0
-0.009826 0.000467 0
-0.010679 0.000442 0
-0.011476 0.000410 0
-0.012205 0.000372 0
-0.012854 0.000326 0
-0.013409 0.000274 0
-0.013860 0.000216 0
-0.014196 0.000152 0
-0.014405 0.000082 0
-0.014482 0.000009 0
-0.014418 -0.000068 0
-0.014210 -0.000146 0
-0.013859 -0.000225 0
-0.013365 -0.000301 0
-0.012735 -0.000373 0
-0.011979 -0.000439 0
-0.011110 -0.000497 0
-0.010146 -0.000544 0
-0.009106 -0.000579 0
-0.008014 -0.000600 0
-0.006895 -0.000607 0
-0.005777 -0.000598 0
-0.004686 -0.000574 0
-0.003651 -0.000535 0
-0.002696 -0.000481 0
-0.001847 -0.000416 0
-0.001122 -0.000339 0
-0.000539 -0.000255 0
-0.000106 -0.000167 0
0.000173 -0.000079 0
0.000304 0.000002 0
0.000306 0.000066 0
0.000213 0.000100 0
0.000082 0.000082 0
0.000000 0.000000 0
0.000000 -0.000001 0
0.000023 -0.000082 0
-0.000075 0.000074 0
-0.000385 0.000337 0
-0.000944 0.000631 0
-0.001753 0.000915 0
-0.002796 0.001169 0
-0.004044 0.001385 0
-0.005464 0.001560 0
-0.007023 0.001695 0
-0.008686 0.001793 0
-0.010421 0.001858 0
-0.012199 0.001890 0
-0.013992 0.001894 0
-0.015773 0.001872 0
-0.017518 0.001823 0
-0.019202 0.001749 0
-0.020801 0.001650 0
-0.022291 0.001526 0
-0.023650 0.001378 0
-0.024853 0.001204 0
-0.025880 0.001007 0
-0.026708 0.000786 0
-0.027318 0.000545 0
-0.027693 0.000286 0
-0.027819 0.000012 0
-0.027685 -0.000271 0
-0.027285 -0.000559 0
-0.026620 -0.000846 0
-0.025695 -0.001124 0
-0.024521 -0.001386 0
-0.023117 -0.001625 0
-0.021507 -0.001833 0
-0.019723 -0.002004 0
-0.017800 -0.002132 0
-0.015781 -0.002211 0
-0.013711 -0.002237 0
-0.011638 -0.002209 0
-0.009611 -0.002126 0
-0.007678 -0.001990 0
-0.005886 -0.001804 0
-0.004275 -0.001574 0
-0.002882 -0.001308 0
-0.001734 -0.001017 0
-0.000849 -0.000712 0
-0.000230 -0.000410 0
0.000132 -0.000133 0
0.000268 0.000092 0
0.000231 0.000224 0
0.000102 0.000213 0
0.000000 0.000000 0
0.000000 -0.000000 0
-0.000057 0.000015 0
-0.000350 0.000387 0
-0.000948 0.000924 0
-0.001878 0.001511 0
-0.003137 0.002079 0
-0.004702 0.002592 0
-0.006536 0.003031 0
-0.008598 0.003391 0
-0.010844 0.003670 0
-0.013228 0.003874 0
-0.015709 0.004006 0
-0.018245 0.004073 0
-0.020797 0.004078 0
-0.023329 0.004024 0
-0.025804 0.003914 0
-0.028188 0.003750 0
-0.030448 0.003531 0
-0.032550 0.003259 0
-0.034460 0.002934 0
-0.036148 0.002556 0
-0.037582 0.002129 0
-0.038734 0.001654 0
-0.039577 0.001137 0
-0.040088 0.000583 0
-0.040249 0.000000 0
-0.040047 -0.000601 0
-0.039475 -0.001211 0
-0.038534 -0.001815 0
-0.037232 -0.002400 0
-0.035586 -0.002951 0
-0.033621 -0.003453 0
-0.031371 -0.003891 0
-0.028878 -0.004251 0
-0.026193 -0.004520 0
-0.023370 -0.004689 0
-0.020472 -0.004750 0
-0.017563 -0.004698 0
-0.014709 -0.004534 0
-0.011975 -0.004260 0
-0.009423 -0.003884 0
-0.007108 -0.003419 0
-0.005079 -0.002880 0
-0.003373 -0.002289 0
-0.002014 -0.001671 0
-0.001008 -0.001060 0
-0.000344 -0.000497 0
0.000013 -0.000033 0
0.000123 0.000266 0
0.000076 0.000313 0
0.000000 -0.000000 0
0.000000 0.000000 0
-0.000153 0.000268 0
-0.000676 0.000966 0
-0.001603 0.001865 0
-0.002940 0.002820 0
-0.004672 0.003738 0
-0.006766 0.004568 0
-0.009178 0.005282 0
-0.011858 0.005868 0
-0.014755 0.006325 0
-0.017814 0.006658 0
-0.020985 0.006874 0
-0.024218 0.006978 0
-0.027464 0.006978 0
-0.030678 0.006879 0
-0.033816 0.006683 0
-0.036833 0.006393 0
-0.039688 0.006012 0
-0.042338 0.005539 0
-0.044742 0.004976 0
-0.046862 0.004326 0
-0.048659 0.003592 0
-0.050098 0.002781 0
-0.051148 0.001899 0
-0.051780 0.000958 0
-0.051974 -0.000029 0
-0.051715 -0.001045 0
-0.050994 -0.002072 0
-0.049814 -0.003089 0
-0.048185 -0.004072 0
-0.046127 -0.004997 0
-0.043673 -0.005840 0
-0.040863 -0.006576 0
-0.037749 -0.007183 0
-0.034391 -0.007640 0
-0.030856 -0.007931 0
-0.027218 -0.008044 0
-0.023556 -0.007972 0
-0.019950 -0.007714 0
-0.016477 -0.007276 0
-0.013213 -0.006671 0
-0.010227 -0.005917 0
-0.007577 -0.005043 0
-0.005310 -0.004082 0
-0.003455 -0.003077 0
-0.002025 -0.002080 0
-0.001009 -0.001154 0
-0.000373 -0.000376 0
-0.000058 0.000160 0
0.000026 0.000336 0
0.000000 0.000000 0
0.000000 0.000000 0
-0.000253 0.000692 0
-0.001020 0.001836 0
-0.002295 0.003187 0
-0.004057 0.004580 0
-0.006275 0.005905 0
-0.008902 0.007098 0
-0.011886 0.008124 0
-0.015168 0.008968 0
-0.018689 0.009626 0
-0.022389 0.010104 0
-0.026209 0.010410 0
-0.030092 0.010552 0
-0.033983 0.010539 0
-0.037827 0.010376 0
-0.041574 0.010069 0
-0.045173 0.009622 0
-0.048572 0.009035 0
-0.051724 0.008313 0
-0.054581 0.007458 0
-0.057097 0.006473 0
-0.059229 0.005365 0
-0.060935 0.004143 0
-0.062179 0.002819 0
-0.062931 0.001410 0
-0.063166 -0.000065 0
-0.062867 -0.001582 0
-0.062025 -0.003112 0
-0.060643 -0.004625 0
-0.058733 -0.006087 0
-0.056319 -0.007463 0
-0.053436 -0.008717 0
-0.050131 -0.009815 0
-0.046463 -0.010723 0
-0.042499 -0.011414 0
-0.038317 -0.011861 0
-0.034001 -0.012049 0
-0.029641 -0.011967 0
-0.025329 -0.011614 0
-0.021154 -0.010997 0
-0.017204 -0.010134 0
-0.013560 -0.009055 0
-0.010290 -0.007797 0
-0.007450 -0.006411 0
-0.005077 -0.004957 0
-0.003191 -0.003507 0
-0.001786 -0.002148 0
-0.000833 -0.000983 0
-0.000277 -0.000133 0
-0.000036 0.000255 0
0.000000 0.000000 0
0.000000 0.000000 0
-0.000352 0.001289 0
-0.001364 0.003006 0
-0.002992 0.004902 0
-0.005186 0.006800 0
-0.007893 0.008583 0
-0.011053 0.010179 0
-0.014602 0.011548 0
-0.018472 0.012671 0
-0.022597 0.013546 0
-0.026911 0.014178 0
-0.031347 0.014577 0
-0.035844 0.014752 0
-0.040340 0.014714 0
-0.044776 0.014470 0
-0.049092 0.014028 0
-0.053233 0.013391 0
-0.057142 0.012563 0
-0.060764 0.011548 0
-0.064046 0.010349 0
-0.066937 0.008973 0
-0.069388 0.007430 0
-0.071354 0.005732 0
-0.072795 0.003896 0
-0.073675 0.001945 0
-0.073968 -0.000093 0
-0.073654 -0.002186 0
-0.072725 -0.004296 0
-0.071181 -0.006381 0
-0.069035 -0.008396 0
-0.066313 -0.010294 0
-0.063054 -0.012028 0
-0.059308 -0.013549 0
-0.055138 -0.014815 0
-0.050619 -0.015786 0
-0.045836 -0.016429 0
-0.040883 -0.016720 0
-0.035858 -0.016645 0
-0.030865 -0.016202 0
-0.026005 -0.015401 0
-0.021376 -0.014265 0
-0.017071 -0.012832 0
-0.013170 -0.011153 0
-0.009738 -0.009295 0
-0.006824 -0.007336 0
-0.004454 -0.005371 0
-0.002630 -0.003512 0
-0.001333 -0.001884 0
-0.000514 -0.000637 0
-0.000101 0.000058 0
0.000000 0.000000 0
0.000000 0.000000 0
-0.000447 0.002056 0
-0.001700 0.004475 0
-0.003677 0.007009 0
-0.006300 0.009481 0
-0.009494 0.011772 0
-0.013180 0.013806 0
-0.017284 0.015543 0
-0.021728 0.016963 0
-0.026438 0.018064 0
-0.031342 0.018854 0
-0.036370 0.019344 0
-0.041452 0.019545 0
-0.046524 0.019470 0
-0.051519 0.019128 0
-0.056376 0.018526 0
-0.061032 0.017671 0
-0.065425 0.016567 0
-0.069498 0.015218 0
-0.073190 0.013631 0
-0.076447 0.011815 0
-0.079215 0.009782 0
-0.081445 0.007549 0
-0.083093 0.005140 0
-0.084121 0.002583 0
-0.084498 -0.000086 0
-0.084202 -0.002825 0
-0.083222 -0.005585 0
-0.081559 -0.008314 0
-0.079224 -0.010954 0
-0.076242 -0.013444 0
-0.072654 -0.015723 0
-0.068512 -0.017731 0
-0.063884 -0.019412 0
-0.058849 -0.020715 0
-0.053498 -0.021597 0
-0.047932 -0.022027 0
-0.042261 -0.021985 0
-0.036595 -0.021467 0
-0.031050 -0.020485 0
-0.025735 -0.019068 0
-0.020754 -0.017261 0
-0.016201 -0.015130 0
-0.012152 -0.012757 0
-0.008668 -0.010241 0
-0.005786 -0.007700 0
-0.003519 -0.005269 0
-0.001855 -0.003100 0
-0.000758 -0.001365 0
-0.000166 -0.000259 0
0.000000 0.000000 0
0.000000 -0.000000 0
-0.000538 0.002989 0
-0.002024 0.006235 0
-0.004341 0.009502 0
-0.007384 0.012617 0
-0.011053 0.015463 0
-0.015255 0.017969 0
-0.019901 0.020095 0
-0.024903 0.021826 0
-0.030181 0.023161 0
-0.035655 0.024110 0
-0.041251 0.024687 0
-0.046895 0.024906 0
-0.052518 0.024781 0
-0.058051 0.024323 0
-0.063426 0.023540 0
-0.068578 0.022440 0
-0.073441 0.021029 0
-0.077953 0.019312 0
-0.082051 0.017299 0
-0.085675 0.014998 0
-0.088767 0.012428 0
-0.091276 0.009610 0
-0.093153 0.006571 0
-0.094355 0.003350 0
-0.094850 -0.000012 0
-0.094611 -0.003461 0
-0.093625 -0.006939 0
-0.091888 -0.010380 0
-0.089411 -0.013713 0
-0.086217 -0.016864 0
-0.082346 -0.019758 0
-0.077852 -0.022319 0
-0.072803 -0.024479 0
-0.067282 -0.026172 0
-0.061386 -0.027345 0
-0.055222 -0.027957 0
-0.048909 -0.027982 0
-0.042568 -0.027413 0
-0.036326 -0.026261 0
-0.030305 -0.024560 0
-0.024624 -0.022366 0
-0.019389 -0.019755 0
-0.014691 -0.016827 0
-0.010605 -0.013702 0
-0.007180 -0.010521 0
-0.004444 -0.007442 0
-0.002394 -0.004645 0
-0.001007 -0.002326 0
-0.000232 -0.000700 0
0.000000 0.000000 0
0.000000 -0.000000 0
-0.000624 0.004079 0
-0.002332 0.008277 0
-0.004977 0.012369 0
-0.008426 0.016194 0
-0.012557 0.019644 0
-0.017259 0.022654 0
-0.022430 0.025190 0
-0.027973 0.027243 0
-0.033799 0.028817 0
-0.039824 0.029925 0
-0.045967 0.030584 0
-0.052153 0.030813 0
-0.058308 0.030625 0
-0.064359 0.030035 0
-0.070237 0.029053 0
-0.075872 0.027686 0
-0.081197 0.025942 0
-0.086146 0.023827 0
-0.090651 0.021353 0
-0.094651 0.018532 0
-0.098084 0.015384 0
-0.100893 0.011935 0
-0.103027 0.008219 0
-0.104440 0.004280 0
-0.105093 0.000170 0
-0.104957 -0.004050 0
-0.104013 -0.008309 0
-0.102253 -0.012528 0
-0.099686 -0.016624 0
-0.096330 -0.020508 0
-0.092223 -0.024088 0
-0.087418 -0.027275 0
-0.081983 -0.029982 0
-0.076004 -0.032132 0
-0.069581 -0.033657 0
-0.062828 -0.034504 0
-0.055871 -0.034639 0
-0.048843 -0.034050 0
-0.041883 -0.032748 0
-0.035128 -0.030770 0
-0.028712 -0.028178 0
-0.022756 -0.025063 0
-0.017371 -0.021540 0
-0.012644 -0.017752 0
-0.008643 -0.013862 0
-0.005408 -0.010055 0
-0.002952 -0.006536 0
-0.001261 -0.003528 0
-0.000297 -0.001266 0
0.000000 0.000000 0
0.000000 -0.000000 0
-0.000705 0.005321 0
-0.002625 0.010589 0
-0.005583 0.015596 0
-0.009420 0.020196 0
-0.013994 0.024297 0
-0.019177 0.027842 0
-0.024853 0.030809 0
-0.030917 0.033195 0
-0.037270 0.035012 0
-0.043825 0.036279 0
-0.050496 0.037016 0
-0.057204 0.037246 0
-0.063872 0.036986 0
-0.070427 0.036252 0
-0.076795 0.035054 0
-0.082907 0.033401 0
-0.088690 0.031302 0
-0.094077 0.028766 0
-0.098999 0.025804 0
-0.103389 0.022431 0
-0.107184 0.018671 0
-0.110323 0.014553 0
-0.112750 0.010118 0
-0.114414 0.005415 0
-0.115272 0.000505 0
-0.115290 -0.004541 0
-0.114442 -0.009642 0
-0.112717 -0.014707 0
-0.110115 -0.019636 0
-0.106651 -0.024326 0
-0.102358 -0.028670 0
-0.097286 -0.032560 0
-0.091501 -0.035893 0
-0.085091 -0.038574 0
-0.078157 -0.040521 0
-0.070820 -0.041666 0
-0.063214 -0.041966 0
-0.055483 -0.041400 0
-0.047778 -0.039976 0
-0.040254 -0.037732 0
-0.033060 -0.034738 0
-0.026340 -0.031096 0
-0.020220 -0.026939 0
-0.014808 -0.022430 0
-0.010190 -0.017757 0
-0.006423 -0.013134 0
-0.003534 -0.008792 0
-0.001524 -0.004981 0
-0.000363 -0.001961 0
0.000000 0.000000 0
0.000000 -0.000000 0
-0.000782 0.006705 0
-0.002901 0.013155 0
-0.006155 0.019164 0
-0.010361 0.024605 0
-0.015356 0.029401 0
-0.020996 0.033513 0
-0.027154 0.036930 0
-0.033715 0.039660 0
-0.040574 0.041725 0
-0.047636 0.043150 0
-0.054814 0.043963 0
-0.062024 0.044189 0
-0.069189 0.043848 0
-0.076233 0.042959 0
-0.083082 0.041533 0
-0.089663 0.039581 0
-0.095905 0.037112 0
-0.101736 0.034136 0
-0.107085 0.030665 0
-0.111885 0.026717 0
-0.116068 0.022318 0
-0.119569 0.017500 0
-0.122329 0.012310 0
-0.124291 0.006802 0
-0.125407 0.001046 0
-0.125635 -0.004880 0
-0.124943 -0.010882 0
-0.123313 -0.016856 0
-0.120737 -0.022691 0
-0.117224 -0.028265 0
-0.112801 -0.033454 0
-0.107510 -0.038132 0
-0.101416 -0.042178 0
-0.094605 -0.045476 0
-0.087180 -0.047927 0
-0.079266 -0.049447 0
-0.071004 -0.049977 0
-0.062551 -0.049486 0
-0.054071 -0.047977 0
-0.045738 -0.045488 0
-0.037720 -0.042092 0
-0.030183 -0.037903 0
-0.023275 -0.033072 0
-0.017126 -0.027781 0
-0.011844 -0.022247 0
-0.007504 -0.016711 0
-0.004152 -0.011435 0
-0.001801 -0.006699 0
-0.000433 -0.002790 0
0.000000 0.000000 0
0.000000 0.000000 0
-0.000853 0.008223 0
-0.003159 0.015962 0
-0.006690 0.023054 0
-0.011241 0.029397 0
-0.016632 0.034932 0
-0.022705 0.039641 0
-0.029318 0.043528 0
-0.036350 0.046614 0
-0.043688 0.048933 0
-0.051233 0.050518 0
-0.058894 0.051404 0
-0.066587 0.051622 0
-0.074231 0.051195 0
-0.081750 0.050144 0
-0.089069 0.048484 0
-0.096115 0.046224 0
-0.102815 0.043375 0
-0.109096 0.039947 0
-0.114887 0.035953 0
-0.120117 0.031414 0
-0.124715 0.026355 0
-0.128614 0.020814 0
-0.131749 0.014840 0
-0.134058 0.008493 0
-0.135486 0.001848 0
-0.135985 -0.005005 0
-0.135515 -0.011964 0
-0.134047 -0.018913 0
-0.131565 -0.025725 0
-0.128069 -0.032263 0
-0.123575 -0.038385 0
-0.118122 -0.043944 0
-0.111767 -0.048798 0
-0.104591 -0.052811 0
-0.096700 -0.055860 0
-0.088219 -0.057842 0
-0.079299 -0.058682 0
-0.070106 -0.058333 0
-0.060823 -0.056789 0
-0.051638 -0.054083 0
-0.042746 -0.050293 0
-0.034333 -0.045542 0
-0.026577 -0.039995 0
-0.019633 -0.033860 0
-0.013631 -0.027379 0
-0.008672 -0.020826 0
-0.004818 -0.014495 0
-0.002099 -0.008700 0
-0.000507 -0.003762 0
0.000000 -0.000000 0
0.000000 0.000000 0
-0.000919 0.009864 0
-0.003398 0.018992 0
-0.007185 0.027245 0
-0.012057 0.034547 0
-0.017816 0.040865 0
-0.024291 0.046199 0
-0.031330 0.050575 0
-0.038803 0.054030 0
-0.046591 0.056608 0
-0.054592 0.058357 0
-0.062712 0.059317 0
-0.070863 0.059526 0
-0.078967 0.059011 0
-0.086945 0.057797 0
-0.094722 0.055898 0
-0.102226 0.053326 0
-0.109383 0.050093 0
-0.116120 0.046208 0
-0.122364 0.041685 0
-0.128043 0.036545 0
-0.133084 0.030815 0
-0.137416 0.024534 0
-0.140969 0.017754 0
-0.143676 0.010540 0
-0.145474 0.002973 0
-0.146308 -0.004851 0
-0.146126 -0.012820 0
-0.144892 -0.020807 0
-0.142577 -0.028669 0
-0.139170 -0.036254 0
-0.134677 -0.043400 0
-0.129126 -0.049940 0
-0.122566 -0.055708 0
-0.115073 -0.060543 0
-0.106748 -0.064299 0
-0.097721 -0.066847 0
-0.088147 -0.068090 0
-0.078203 -0.067963 0
-0.068087 -0.066446 0
-0.058010 -0.063565 0
-0.048190 -0.059397 0
-0.038842 -0.054072 0
-0.030172 -0.047772 0
-0.022366 -0.040727 0
-0.015582 -0.033209 0
-0.009946 -0.025525 0
-0.005544 -0.018008 0
-0.002424 -0.011010 0
-0.000587 -0.004888 0
0.000000 -0.000000 0
0.000000 0.000000 0
-0.000979 0.011620 0
-0.003615 0.022227 0
-0.007636 0.031713 0
-0.012801 0.040028 0
-0.018898 0.047167 0
-0.025743 0.053155 0
-0.033175 0.058039 0
-0.041055 0.061875 0
-0.049262 0.064722 0
-0.057687 0.066639 0
-0.066236 0.067676 0
-0.074821 0.067877 0
-0.083360 0.067277 0
-0.091777 0.065900 0
-0.099998 0.063765 0
-0.107949 0.060884 0
-0.115558 0.057268 0
-0.122753 0.052928 0
-0.129460 0.047877 0
-0.135604 0.042134 0
-0.141113 0.035728 0
-0.145910 0.028699 0
-0.149922 0.021100 0
-0.153076 0.012998 0
-0.155302 0.004480 0
-0.156534 -0.004353 0
-0.156713 -0.013379 0
-0.155787 -0.022462 0
-0.153718 -0.031447 0
-0.150481 -0.040162 0
-0.146067 -0.048428 0
-0.140493 -0.056055 0
-0.133796 -0.062851 0
-0.126044 -0.068629 0
-0.117333 -0.073211 0
-0.107791 -0.076444 0
-0.097576 -0.078200 0
-0.086878 -0.078393 0
-0.075910 -0.076981 0
-0.064904 -0.073980 0
-0.054104 -0.069461 0
-0.043758 -0.063559 0
-0.034104 -0.056472 0
-0.025362 -0.048451 0
-0.017725 -0.039799 0
-0.011349 -0.030863 0
-0.006346 -0.022018 0
-0.002782 -0.013657 0
-0.000677 -0.006185 0
0.000000 -0.000000 0
0.000000 -0.000000 0
-0.001033 0.013479 0
-0.003809 0.025649 0
-0.008040 0.036431 0
-0.013468 0.045809 0
-0.019869 0.053806 0
-0.027048 0.060476 0
-0.034836 0.065887 0
-0.043088 0.070116 0
-0.051676 0.073241 0
-0.060492 0.075332 0
-0.069437 0.076451 0
-0.078423 0.076650 0
-0.087370 0.075968 0
-0.096203 0.074434 0
-0.104846 0.072070 0
-0.113230 0.068887 0
-0.121282 0.064897 0
-0.128930 0.060110 0
-0.136103 0.054537 0
-0.142724 0.048198 0
-0.148719 0.041121 0
-0.154009 0.033343 0
-0.158516 0.024920 0
-0.162162 0.015920 0
-0.164870 0.006431 0
-0.166564 -0.003440 0
-0.167173 -0.013567 0
-0.166635 -0.023801 0
-0.164896 -0.033975 0
-0.161914 -0.043905 0
-0.157669 -0.053388 0
-0.152158 -0.062211 0
-0.145406 -0.070157 0
-0.137468 -0.077007 0
-0.128432 -0.082552 0
-0.118421 -0.086603 0
-0.107597 -0.089002 0
-0.096155 -0.089630 0
-0.084324 -0.088421 0
-0.072359 -0.085370 0
-0.060532 -0.080542 0
-0.049126 -0.074072 0
-0.038415 -0.066168 0
-0.028661 -0.057106 0
-0.020093 -0.047222 0
-0.012904 -0.036904 0
-0.007237 -0.026575 0
-0.003183 -0.016679 0
-0.000777 -0.007671 0
0.000000 -0.000000 0
0.000000 -0.000000 0
-0.001080 0.015430 0
-0.003979 0.029235 0
-0.008393 0.041372 0
-0.014053 0.051858 0
-0.020722 0.060747 0
-0.028196 0.068122 0
-0.036300 0.074078 0
-0.044881 0.078715 0
-0.053811 0.082126 0
-0.062977 0.084399 0
-0.072280 0.085608 0
-0.081633 0.085811 0
-0.090955 0.085056 0
-0.100171 0.083375 0
-0.109211 0.080792 0
-0.118005 0.077320 0
-0.126482 0.072969 0
-0.134574 0.067749 0
-0.142207 0.061670 0
-0.149308 0.054750 0
-0.155799 0.047013 0
-0.161602 0.038496 0
-0.166633 0.029253 0
-0.170811 0.019352 0
-0.174049 0.008882 0
-0.176264 -0.002049 0
-0.177373 -0.013308 0
-0.177301 -0.024740 0
-0.175976 -0.036167 0
-0.173344 -0.047389 0
-0.169363 -0.058185 0
-0.164013 -0.068318 0
-0.157302 -0.077541 0
-0.149268 -0.085603 0
-0.139987 -0.092258 0
-0.129574 -0.097279 0
-0.118188 -0.100467 0
-0.106030 -0.101666 0
-0.093342 -0.100778 0
-0.080401 -0.097771 0
-0.067509 -0.092694 0
-0.054984 -0.085676 0
-0.043145 -0.076937 0
-0.032297 -0.066773 0
-0.022715 -0.055556 0
-0.014633 -0.043720 0
-0.008232 -0.031739 0
-0.003632 -0.020117 0
-0.000891 -0.009368 0
0.000000 -0.000000 0
0.000000 -0.000000 0
-0.001119 0.017458 0
-0.004122 0.032962 0
-0.008692 0.046505 0
-0.014548 0.058138 0
-0.021446 0.067950 0
-0.029174 0.076053 0
-0.037549 0.082572 0
-0.046417 0.087628 0
-0.055644 0.091337 0
-0.065116 0.093801 0
-0.074734 0.095106 0
-0.084410 0.095324 0
-0.094067 0.094506 0
-0.103630 0.092691 0
-0.113032 0.089903 0
-0.122205 0.086158 0
-0.131082 0.081466 0
-0.139595 0.075834 0
-0.147674 0.069271 0
-0.155246 0.061790 0
-0.162234 0.053414 0
-0.168558 0.044178 0
-0.174133 0.034129 0
-0.178871 0.023336 0
-0.182680 0.011884 0
-0.185468 -0.000116 0
-0.187141 -0.012530 0
-0.187609 -0.025198 0
-0.186787 -0.037932 0
-0.184600 -0.050518 0
-0.180987 -0.062719 0
-0.175908 -0.074272 0
-0.169348 -0.084902 0
-0.161327 -0.094322 0
-0.151901 -0.102246 0
-0.141175 -0.108402 0
-0.129298 -0.112546 0
-0.116474 -0.114476 0
-0.102955 -0.114050 0
-0.089037 -0.111204 0
-0.075053 -0.105959 0
-0.061360 -0.098436 0
-0.048325 -0.088855 0
-0.036301 -0.077536 0
-0.025618 -0.064886 0
-0.016557 -0.051387 0
-0.009344 -0.037576 0
-0.004137 -0.024020 0
-0.001019 -0.011303 0
0.000000 -0.000000 0
0.000000 0.000000 0
-0.001150 0.019551 0
-0.004236 0.036808 0
-0.008932 0.051799 0
-0.014949 0.064612 0
-0.022035 0.075372 0
-0.029971 0.084225 0
-0.038571 0.091321 0
-0.047676 0.096809 0
-0.057151 0.100825 0
-0.066880 0.103489 0
-0.076764 0.104902 0
-0.086716 0.105144 0
-0.096659 0.104276 0
-0.106524 0.102341 0
-0.116244 0.099366 0