# vtk DataFile Version 2.0
generated by CFD-lab course output (written by Tobias Neckel) 
ASCII

DATASET STRUCTURED_GRID
DIMENSIONS  51 51 1 
POINTS 2601 float

0.000000 0.000000 0
0.020000 0.000000 0
0.040000 0.000000 0
0.060000 0.000000 0
0.080000 0.000000 0
0.100000 0.000000 0
0.120000 0.000000 0
0.140000 0.000000 0
0.160000 0.000000 0
0.180000 0.000000 0
0.200000 0.000000 0
0.220000 0.000000 0
0.240000 0.000000 0
0.260000 0.000000 0
0.280000 0.000000 0
0.300000 0.000000 0
0.320000 0.000000 0
0.340000 0.000000 0
0.360000 0.000000 0
0.380000 0.000000 0
0.400000 0.000000 0
0.420000 0.000000 0
0.440000 0.000000 0
0.460000 0.000000 0
0.480000 0.000000 0
0.500000 0.000000 0
0.520000 0.000000 0
0.540000 0.000000 0
0.560000 0.000000 0
0.580000 0.000000 0
0.600000 0.000000 0
0.620000 0.000000 0
0.640000 0.000000 0
0.660000 0.000000 0
0.680000 0.000000 0
0.700000 0.000000 0
0.720000 0.000000 0
0.740000 0.000000 0
0.760000 0.000000 0
0.780000 0.000000 0
0.800000 0.000000 0
0.820000 0.000000 0
0.840000 0.000000 0
0.860000 0.000000 0
0.880000 0.000000 0
0.900000 0.000000 0
0.920000 0.000000 0
0.940000 0.000000 0
0.960000 0.000000 0
0.980000 0.000000 0
1.000000 0.000000 0
0.000000 0.020000 0
0.020000 0.020000 0
0.040000 0.020000 0
0.060000 0.020000 0
0.080000 0.020000 0
0.100000 0.020000 0
0.120000 0.020000 0
0.140000 0.020000 0
0.160000 0.020000 0
0.180000 0.020000 0
0.200000 0.020000 0
0.220000 0.020000 0
0.240000 0.020000 0
0.260000 0.020000 0
0.280000 0.020000 0
0.300000 0.020000 0
0.320000 0.020000 0
0.340000 0.020000 0
0.360000 0.020000 0
0.380000 0.020000 0
0.400000 0.020000 0
0.420000 0.020000 0
0.440000 0.020000 0
0.460000 0.020000 0
0.480000 0.020000 0
0.500000 0.020000 0
0.520000 0.020000 0
0.540000 0.020000 0
0.560000 0.020000 0
0.580000 0.020000 0
0.600000 0.020000 0
0.620000 0.020000 0
0.640000 0.020000 0
0.660000 0.020000 0
0.680000 0.020000 0
0.700000 0.020000 0
0.720000 0.020000 0
0.740000 0.020000 0
0.760000 0.020000 0
0.780000 0.020000 0
0.800000 0.020000 0
0.820000 0.020000 0
0.840000 0.020000 0
0.860000 0.020000 0
0.880000 0.020000 0
0.900000 0.020000 0
0.920000 0.020000 0
0.940000 0.020000 0
0.960000 0.020000 0
0.980000 0.020000 0
1.000000 0.020000 0
0.000000 0.040000 0
0.020000 0.040000 0
0.040000 0.040000 0
0.060000 0.040000 0
0.080000 0.040000 0
0.100000 0.040000 0
0.120000 0.040000 0
0.140000 0.040000 0
0.160000 0.040000 0
0.180000 0.040000 0
0.200000 0.040000 0
0.220000 0.040000 0
0.240000 0.040000 0
0.260000 0.040000 0
0.280000 0.040000 0
0.300000 0.040000 0
0.320000 0.040000 0
0.340000 0.040000 0
0.360000 0.040000 0
0.380000 0.040000 0
0.400000 0.040000 0
0.420000 0.040000 0
0.440000 0.040000 0
0.460000 0.040000 0
0.480000 0.040000 0
0.500000 0.040000 0
0.520000 0.040000 0
0.540000 0.040000 0
0.560000 0.040000 0
0.580000 0.040000 0
0.600000 0.040000 0
0.620000 0.040000 0
0.640000 0.040000 0
0.660000 0.040000 0
0.680000 0.040000 0
0.700000 0.040000 0
0.720000 0.040000 0
0.740000 0.040000 0
0.760000 0.040000 0
0.780000 0.040000 0
0.800000 0.040000 0
0.820000 0.040000 0
0.840000 0.040000 0
0.860000 0.040000 0
0.880000 0.040000 0
0.900000 0.040000 0
0.920000 0.040000 0
0.940000 0.040000 0
0.960000 0.040000 0
0.980000 0.040000 0
1.000000 0.040000 0
0.000000 0.060000 0
0.020000 0.060000 0
0.040000 0.060000 0
0.060000 0.060000 0
0.080000 0.060000 0
0.100000 0.060000 0
0.120000 0.060000 0
0.140000 0.060000 0
0.160000 0.060000 0
0.180000 0.060000 0
0.200000 0.060000 0
0.220000 0.060000 0
0.240000 0.060000 0
0.260000 0.060000 0
0.280000 0.060000 0
0.300000 0.060000 0
0.320000 0.060000 0
0.340000 0.060000 0
0.360000 0.060000 0
0.380000 0.060000 0
0.400000 0.060000 0
0.420000 0.060000 0
0.440000 0.060000 0
0.460000 0.060000 0
0.480000 0.060000 0
0.500000 0.060000 0
0.520000 0.060000 0
0.540000 0.060000 0
0.560000 0.060000 0
0.580000 0.060000 0
0.600000 0.060000 0
0.620000 0.060000 0
0.640000 0.060000 0
0.660000 0.060000 0
0.680000 0.060000 0
0.700000 0.060000 0
0.720000 0.060000 0
0.740000 0.060000 0
0.760000 0.060000 0
0.780000 0.060000 0
0.800000 0.060000 0
0.820000 0.060000 0
0.840000 0.060000 0
0.860000 0.060000 0
0.880000 0.060000 0
0.900000 0.060000 0
0.920000 0.060000 0
0.940000 0.060000 0
0.960000 0.060000 0
0.980000 0.060000 0
1.000000 0.060000 0
0.000000 0.080000 0
0.020000 0.080000 0
0.040000 0.080000 0
0.060000 0.080000 0
0.080000 0.080000 0
0.100000 0.080000 0
0.120000 0.080000 0
0.140000 0.080000 0
0.160000 0.080000 0
0.180000 0.080000 0
0.200000 0.080000 0
0.220000 0.080000 0
0.240000 0.080000 0
0.260000 0.080000 0
0.280000 0.080000 0
0.300000 0.080000 0
0.320000 0.080000 0
0.340000 0.080000 0
0.360000 0.080000 0
0.380000 0.080000 0
0.400000 0.080000 0
0.420000 0.080000 0
0.440000 0.080000 0
0.460000 0.080000 0
0.480000 0.080000 0
0.500000 0.080000 0
0.520000 0.080000 0
0.540000 0.080000 0
0.560000 0.080000 0
0.580000 0.080000 0
0.600000 0.080000 0
0.620000 0.080000 0
0.640000 0.080000 0
0.660000 0.080000 0
0.680000 0.080000 0
0.700000 0.080000 0
0.720000 0.080000 0
0.740000 0.080000 0
0.760000 0.080000 0
0.780000 0.080000 0
0.800000 0.080000 0
0.820000 0.080000 0
0.840000 0.080000 0
0.860000 0.080000 0
0.880000 0.080000 0
0.900000 0.080000 0
0.920000 0.080000 0
0.940000 0.080000 0
0.960000 0.080000 0
0.980000 0.080000 0
1.000000 0.080000 0
0.000000 0.100000 0
0.020000 0.100000 0
0.040000 0.100000 0
0.060000 0.100000 0
0.080000 0.100000 0
0.100000 0.100000 0
0.120000 0.100000 0
0.140000 0.100000 0
0.160000 0.100000 0
0.180000 0.100000 0
0.200000 0.100000 0
0.220000 0.100000 0
0.240000 0.100000 0
0.260000 0.100000 0
0.280000 0.100000 0
0.300000 0.100000 0
0.320000 0.100000 0
0.340000 0.100000 0
0.360000 0.100000 0
0.380000 0.100000 0
0.400000 0.100000 0
0.420000 0.100000 0
0.440000 0.100000 0
0.460000 0.100000 0
0.480000 0.100000 0
0.500000 0.100000 0
0.520000 0.100000 0
0.540000 0.100000 0
0.560000 0.100000 0
0.580000 0.100000 0
0.600000 0.100000 0
0.620000 0.100000 0
0.640000 0.100000 0
0.660000 0.100000 0
0.680000 0.100000 0
0.700000 0.100000 0
0.720000 0.100000 0
0.740000 0.100000 0
0.760000 0.100000 0
0.780000 0.100000 0
0.800000 0.100000 0
0.820000 0.100000 0
0.840000 0.100000 0
0.860000 0.100000 0
0.880000 0.100000 0
0.900000 0.100000 0
0.920000 0.100000 0
0.940000 0.100000 0
0.960000 0.100000 0
0.980000 0.100000 0
1.000000 0.100000 0
0.000000 0.120000 0
0.020000 0.120000 0
0.040000 0.120000 0
0.060000 0.120000 0
0.080000 0.120000 0
0.100000 0.120000 0
0.120000 0.120000 0
0.140000 0.120000 0
0.160000 0.120000 0
0.180000 0.120000 0
0.200000 0.120000 0
0.220000 0.120000 0
0.240000 0.120000 0
0.260000 0.120000 0
0.280000 0.120000 0
0.300000 0.120000 0
0.320000 0.120000 0
0.340000 0.120000 0
0.360000 0.120000 0
0.380000 0.120000 0
0.400000 0.120000 0
0.420000 0.120000 0
0.440000 0.120000 0
0.460000 0.120000 0
0.480000 0.120000 0
0.500000 0.120000 0
0.520000 0.120000 0
0.540000 0.120000 0
0.560000 0.120000 0
0.580000 0.120000 0
0.600000 0.120000 0
0.620000 0.120000 0
0.640000 0.120000 0
0.660000 0.120000 0
0.680000 0.120000 0
0.700000 0.120000 0
0.720000 0.120000 0
0.740000 0.120000 0
0.760000 0.120000 0
0.780000 0.120000 0
0.800000 0.120000 0
0.820000 0.120000 0
0.840000 0.120000 0
0.860000 0.120000 0
0.880000 0.120000 0
0.900000 0.120000 0
0.920000 0.120000 0
0.940000 0.120000 0
0.960000 0.120000 0
0.980000 0.120000 0
1.000000 0.120000 0
0.000000 0.140000 0
0.020000 0.140000 0
0.040000 0.140000 0
0.060000 0.140000 0
0.080000 0.140000 0
0.100000 0.140000 0
0.120000 0.140000 0
0.140000 0.140000 0
0.160000 0.140000 0
0.180000 0.140000 0
0.200000 0.140000 0
0.220000 0.140000 0
0.240000 0.140000 0
0.260000 0.140000 0
0.280000 0.140000 0
0.300000 0.140000 0
0.320000 0.140000 0
0.340000 0.140000 0
0.360000 0.140000 0
0.380000 0.140000 0
0.400000 0.140000 0
0.420000 0.140000 0
0.440000 0.140000 0
0.460000 0.140000 0
0.480000 0.140000 0
0.500000 0.140000 0
0.520000 0.140000 0
0.540000 0.140000 0
0.560000 0.140000 0
0.580000 0.140000 0
0.600000 0.140000 0
0.620000 0.140000 0
0.640000 0.140000 0
0.660000 0.140000 0
0.680000 0.140000 0
0.700000 0.140000 0
0.720000 0.140000 0
0.740000 0.140000 0
0.760000 0.140000 0
0.780000 0.140000 0
0.800000 0.140000 0
0.820000 0.140000 0
0.840000 0.140000 0
0.860000 0.140000 0
0.880000 0.140000 0
0.900000 0.140000 0
0.920000 0.140000 0
0.940000 0.140000 0
0.960000 0.140000 0
0.980000 0.140000 0
1.000000 0.140000 0
0.000000 0.160000 0
0.020000 0.160000 0
0.040000 0.160000 0
0.060000 0.160000 0
0.080000 0.160000 0
0.100000 0.160000 0
0.120000 0.160000 0
0.140000 0.160000 0
0.160000 0.160000 0
0.180000 0.160000 0
0.200000 0.160000 0
0.220000 0.160000 0
0.240000 0.160000 0
0.260000 0.160000 0
0.280000 0.160000 0
0.300000 0.160000 0
0.320000 0.160000 0
0.340000 0.160000 0
0.360000 0.160000 0
0.380000 0.160000 0
0.400000 0.160000 0
0.420000 0.160000 0
0.440000 0.160000 0
0.460000 0.160000 0
0.480000 0.160000 0
0.500000 0.160000 0
0.520000 0.160000 0
0.540000 0.160000 0
0.560000 0.160000 0
0.580000 0.160000 0
0.600000 0.160000 0
0.620000 0.160000 0
0.640000 0.160000 0
0.660000 0.160000 0
0.680000 0.160000 0
0.700000 0.160000 0
0.720000 0.160000 0
0.740000 0.160000 0
0.760000 0.160000 0
0.780000 0.160000 0
0.800000 0.160000 0
0.820000 0.160000 0
0.840000 0.160000 0
0.860000 0.160000 0
0.880000 0.160000 0
0.900000 0.160000 0
0.920000 0.160000 0
0.940000 0.160000 0
0.960000 0.160000 0
0.980000 0.160000 0
1.000000 0.160000 0
0.000000 0.180000 0
0.020000 0.180000 0
0.040000 0.180000 0
0.060000 0.180000 0
0.080000 0.180000 0
0.100000 0.180000 0
0.120000 0.180000 0
0.140000 0.180000 0
0.160000 0.180000 0
0.180000 0.180000 0
0.200000 0.180000 0
0.220000 0.180000 0
0.240000 0.180000 0
0.260000 0.180000 0
0.280000 0.180000 0
0.300000 0.180000 0
0.320000 0.180000 0
0.340000 0.180000 0
0.360000 0.180000 0
0.380000 0.180000 0
0.400000 0.180000 0
0.420000 0.180000 0
0.440000 0.180000 0
0.460000 0.180000 0
0.480000 0.180000 0
0.500000 0.180000 0
0.520000 0.180000 0
0.540000 0.180000 0
0.560000 0.180000 0
0.580000 0.180000 0
0.600000 0.180000 0
0.620000 0.180000 0
[...]
POINT_DATA 2601 

VECTORS velocity float
0.000000 0.000000 0
-0.000000 0.000000 0
0.000000 0.000000 0
0.000000 0.000000 0
0.000000 0.000000 0
0.000000 0.000000 0
0.000000 0.000000 0
0.000000 0.000000 0
0.000000 0.000000 0
0.000000 0.000000 0
0.000000 0.000000 0
-0.000000 0.000000 0
-0.000000 0.000000 0
-0.000000 0.000000 0
-0.000000 0.000000 0
-0.000000 0.000000 0
-0.000000 0.000000 0
0.000000 0.000000 0
0.000000 0.000000 0
0.000000 0.000000 0
0.000000 0.000000 0
-0.000000 0.000000 0
-0.000000 0.000000 0
-0.000000 0.000000 0
-0.000000 0.000000 0
-0.000000 0.000000 0
-0.000000 0.000000 0
-0.000000 0.000000 0
-0.000000 0.000000 0
0.000000 0.000000 0
0.000000 0.000000 0
0.000000 0.000000 0
0.000000 0.000000 0
0.000000 0.000000 0
-0.000000 0.000000 0
-0.000000 0.000000 0
-0.000000 0.000000 0
-0.000000 0.000000 0
-0.000000 0.000000 0
-0.000000 0.000000 0
-0.000000 0.000000 0
-0.000000 0.000000 0
-0.000000 0.000000 0
0.000000 0.000000 0
0.000000 0.000000 0
0.000000 0.000000 0
0.000000 0.000000 0
0.000000 0.000000 0
0.000000 0.000000 0
0.000000 0.000000 0
0.000000 0.000000 0
0.000000 -0.000000 0
0.000060 -0.000060 0
0.000080 -0.000023 0
-0.000015 0.000055 0
-0.000256 0.000143 0
-0.000644 0.000227 0
-0.001168 0.000300 0
-0.001809 0.000361 0
-0.002547 0.000410 0
-0.003362 0.000447 0
-0.004235 0.000473 0
-0.005148 0.000491 0
-0.006085 0.000500 0
-0.007031 0.000501 0
-0.007971 0.000496 0
-0.008894 0.000484 0
-0.009786 0.000465 0
-0.010635 0.000440 0
-0.011429 0.000408 0
-0.012155 0.000370 0
-0.012801 0.000325 0
-0.013354 0.000273 0
-0.013804 0.000215 0
-0.014138 0.000151 0
-0.014347 0.000082 0
-0.014424 0.000009 0
-0.014361 -0.000068 0
-0.014155 -0.000145 0
-0.013805 -0.000223 0
-0.013315 -0.000299 0
-0.012688 -0.000371 0
-0.011936 -0.000437 0
-0.011072 -0.000494 0
-0.010112 -0.000541 0
-0.009078 -0.000576 0
-0.007991 -0.000598 0
-0.006877 -0.000604 0
-0.005763 -0.000596 0
-0.004677 -0.000572 0
-0.003645 -0.000533 0
-0.002694 -0.000480 0
-0.001847 -0.000414 0
-0.001125 -0.000338 0
-0.000542 -0.000255 0
-0.000110 -0.000167 0
0.000169 -0.000080 0
0.000301 0.000001 0
0.000303 0.000066 0
0.000211 0.000099 0
0.000082 0.000082 0
0.000000 0.000000 0
0.000000 0.000000 0
0.000023 -0.000081 0
-0.000076 0.000075 0
-0.000386 0.000336 0
-0.000942 0.000629 0
-0.001748 0.000912 0
-0.002786 0.001165 0
-0.004029 0.001380 0
-0.005444 0.001554 0
-0.006996 0.001688 0
-0.008651 0.001785 0
-0.010379 0.001849 0
-0.012149 0.001882 0
-0.013934 0.001886 0
-0.015707 0.001863 0
-0.017444 0.001815 0
-0.019120 0.001742 0
-0.020712 0.001643 0
-0.022196 0.001520 0
-0.023549 0.001372 0
-0.024748 0.001199 0
-0.025771 0.001002 0
-0.026596 0.000783 0
-0.027204 0.000544 0
-0.027578 0.000286 0
-0.027705 0.000014 0
-0.027573 -0.000269 0
-0.027177 -0.000555 0
-0.026516 -0.000840 0
-0.025596 -0.001117 0
-0.024429 -0.001378 0
-0.023033 -0.001616 0
-0.021431 -0.001824 0
-0.019656 -0.001995 0
-0.017742 -0.002122 0
-0.015732 -0.002201 0
-0.013672 -0.002228 0
-0.011607 -0.002200 0
-0.009588 -0.002118 0
-0.007663 -0.001983 0
-0.005877 -0.001798 0
-0.004272 -0.001569 0
-0.002883 -0.001305 0
-0.001738 -0.001015 0
-0.000854 -0.000711 0
-0.000235 -0.000411 0
0.000128 -0.000134 0
0.000265 0.000089 0
0.000229 0.000222 0
0.000102 0.000211 0
0.000000 0.000000 0
0.000000 0.000000 0
-0.000057 0.000016 0
-0.000349 0.000386 0
-0.000945 0.000921 0
-0.001872 0.001506 0
-0.003126 0.002072 0
-0.004684 0.002582 0
-0.006510 0.003019 0
-0.008563 0.003376 0
-0.010799 0.003654 0
-0.013173 0.003856 0
-0.015642 0.003988 0
-0.018166 0.004055 0
-0.020706 0.004060 0
-0.023226 0.004006 0
-0.025691 0.003897 0
-0.028065 0.003734 0
-0.030315 0.003516 0
-0.032407 0.003245 0
-0.034310 0.002921 0
-0.035991 0.002546 0
-0.037420 0.002121 0
-0.038567 0.001649 0
-0.039408 0.001134 0
-0.039919 0.000583 0
-0.040081 0.000003 0
-0.039882 -0.000595 0
-0.039315 -0.001202 0
-0.038380 -0.001803 0
-0.037086 -0.002386 0
-0.035450 -0.002935 0
-0.033495 -0.003435 0
-0.031257 -0.003871 0
-0.028777 -0.004230 0
-0.026104 -0.004499 0
-0.023295 -0.004668 0
-0.020410 -0.004730 0
-0.017513 -0.004679 0
-0.014671 -0.004516 0
-0.011947 -0.004245 0
-0.009404 -0.003871 0
-0.007097 -0.003409 0
-0.005075 -0.002872 0
-0.003373 -0.002284 0
-0.002017 -0.001669 0
-0.001012 -0.001061 0
-0.000348 -0.000499 0
0.000009 -0.000036 0
0.000121 0.000262 0
0.000076 0.000311 0
0.000000 0.000000 0
0.000000 0.000000 0
-0.000153 0.000269 0
-0.000674 0.000963 0
-0.001597 0.001859 0
-0.002928 0.002809 0
-0.004652 0.003724 0
-0.006737 0.004549 0
-0.009138 0.005259 0
-0.011806 0.005842 0
-0.014690 0.006297 0
-0.017735 0.006628 0
-0.020891 0.006843 0
-0.024109 0.006947 0
-0.027340 0.006947 0
-0.030540 0.006848 0
-0.033663 0.006653 0
-0.036667 0.006365 0
-0.039509 0.005985 0
-0.042148 0.005515 0
-0.044543 0.004955 0
-0.046654 0.004309 0
-0.048445 0.003579 0
-0.049879 0.002772 0
-0.050926 0.001895 0
-0.051559 0.000959 0
-0.051754 -0.000023 0
-0.051499 -0.001034 0
-0.050784 -0.002057 0
-0.049612 -0.003069 0
-0.047993 -0.004048 0
-0.045948 -0.004969 0
-0.043507 -0.005809 0
-0.040712 -0.006543 0
-0.037613 -0.007148 0
-0.034271 -0.007604 0
-0.030753 -0.007895 0
-0.027131 -0.008009 0
-0.023485 -0.007939 0
-0.019893 -0.007684 0
-0.016434 -0.007249 0
-0.013182 -0.006648 0
-0.010206 -0.005899 0
-0.007565 -0.005029 0
-0.005304 -0.004073 0
-0.003454 -0.003072 0
-0.002026 -0.002079 0
-0.001011 -0.001156 0
-0.000376 -0.000380 0
-0.000060 0.000156 0
0.000025 0.000332 0
0.000000 0.000000 0
0.000000 0.000000 0
-0.000253 0.000690 0
-0.001016 0.001830 0
-0.002285 0.003176 0
-0.004039 0.004561 0
-0.006247 0.005880 0
-0.008862 0.007067 0
-0.011832 0.008088 0
-0.015099 0.008927 0
-0.018603 0.009582 0
-0.022286 0.010058 0
-0.026087 0.010363 0
-0.029952 0.010504 0
-0.033825 0.010491 0
-0.037652 0.010329 0
-0.041382 0.010024 0
-0.044965 0.009579 0
-0.048350 0.008996 0
-0.051489 0.008278 0
-0.054334 0.007427 0
-0.056840 0.006448 0
-0.058964 0.005346 0
-0.060665 0.004130 0
-0.061907 0.002813 0
-0.062659 0.001411 0
-0.062896 -0.000056 0
-0.062602 -0.001566 0
-0.061768 -0.003089 0
-0.060396 -0.004595 0
-0.058498 -0.006050 0
-0.056098 -0.007421 0
-0.053231 -0.008671 0
-0.049943 -0.009765 0
-0.046293 -0.010671 0
-0.042348 -0.011360 0
-0.038185 -0.011808 0
-0.033889 -0.011997 0
-0.029547 -0.011917 0
-0.025252 -0.011568 0
-0.021094 -0.010955 0
-0.017159 -0.010099 0
-0.013527 -0.009026 0
-0.010268 -0.007775 0
-0.007436 -0.006395 0
-0.005070 -0.004947 0
-0.003189 -0.003503 0
-0.001786 -0.002149 0
-0.000834 -0.000987 0
-0.000278 -0.000139 0
-0.000036 0.000251 0
0.000000 0.000000 0
0.000000 0.000000 0
-0.000351 0.001285 0
-0.001358 0.002995 0
-0.002978 0.004882 0
-0.005162 0.006771 0
-0.007856 0.008546 0
-0.011001 0.010134 0
-0.014532 0.011495 0
-0.018384 0.012613 0
-0.022489 0.013484 0
-0.026782 0.014113 0
-0.031197 0.014510 0
-0.035673 0.014685 0
-0.040149 0.014647 0
-0.044564 0.014405 0
-0.048862 0.013965 0
-0.052984 0.013332 0
-0.056876 0.012509 0
-0.060484 0.011499 0
-0.063753 0.010307 0
-0.066634 0.008939 0
-0.069076 0.007404 0
-0.071037 0.005715 0
-0.072475 0.003889 0
-0.073355 0.001948 0
-0.073651 -0.000080 0
-0.073343 -0.002163 0
-0.072422 -0.004263 0
-0.070889 -0.006339 0
-0.068758 -0.008346 0
-0.066052 -0.010237 0
-0.062810 -0.011964 0
-0.059083 -0.013480 0
-0.054934 -0.014743 0
-0.050436 -0.015712 0
-0.045676 -0.016354 0
-0.040744 -0.016647 0
-0.035741 -0.016576 0
-0.030768 -0.016137 0
-0.025926 -0.015343 0
-0.021315 -0.014214 0
-0.017026 -0.012790 0
-0.013138 -0.011120 0
-0.009717 -0.009270 0
-0.006811 -0.007320 0
-0.004447 -0.005363 0
-0.002628 -0.003510 0
-0.001332 -0.001888 0
-0.000514 -0.000643 0
-0.000101 0.000054 0
0.000000 0.000000 0
0.000000 0.000000 0
-0.000445 0.002049 0
-0.001692 0.004457 0
-0.003659 0.006979 0
-0.006269 0.009440 0
-0.009447 0.011719 0
-0.013116 0.013743 0
-0.017199 0.015470 0
-0.021621 0.016884 0
-0.026308 0.017981 0
-0.031189 0.018767 0
-0.036193 0.019255 0
-0.041252 0.019456 0
-0.046300 0.019381 0
-0.051273 0.019042 0
-0.056108 0.018444 0
-0.060744 0.017594 0
-0.065119 0.016496 0
-0.069175 0.015155 0
-0.072854 0.013578 0
-0.076099 0.011772 0
-0.078859 0.009750 0
-0.081083 0.007529 0
-0.082728 0.005132 0
-0.083756 0.002587 0
-0.084137 -0.000069 0
-0.083847 -0.002795 0
-0.082877 -0.005543 0
-0.081226 -0.008259 0
-0.078906 -0.010888 0
-0.075942 -0.013368 0
-0.072373 -0.015639 0
-0.068253 -0.017641 0
-0.063647 -0.019318 0
-0.058635 -0.020618 0
-0.053308 -0.021500 0
-0.047767 -0.021932 0
-0.042119 -0.021894 0
-0.036476 -0.021382 0
-0.030952 -0.020408 0
-0.025657 -0.018999 0
-0.020695 -0.017203 0
-0.016157 -0.015084 0
-0.012122 -0.012722 0
-0.008648 -0.010217 0
-0.005774 -0.007686 0
-0.003513 -0.005263 0
-0.001853 -0.003101 0
-0.000757 -0.001370 0
-0.000166 -0.000264 0
0.000000 0.000000 0
0.000000 0.000000 0
-0.000535 0.002977 0
-0.002013 0.006209 0
-0.004319 0.009460 0
-0.007346 0.012559 0
-0.010997 0.015392 0
-0.015179 0.017885 0
-0.019801 0.020001 0
-0.024778 0.021723 0
-0.030030 0.023053 0
-0.035478 0.023998 0
-0.041048 0.024573 0
-0.046667 0.024791 0
-0.052264 0.024668 0
-0.057772 0.024213 0
-0.063124 0.023436 0
-0.068254 0.022343 0
-0.073098 0.020941 0
-0.077592 0.019234 0
-0.081675 0.017232 0
-0.085286 0.014944 0
-0.088370 0.012388 0
-0.090873 0.009585 0
-0.092746 0.006562 0
-0.093949 0.003356 0
-0.094447 0.000011 0
-0.094216 -0.003422 0
-0.093239 -0.006885 0
-0.091516 -0.010311 0
-0.089055 -0.013630 0
-0.085880 -0.016769 0
-0.082030 -0.019653 0
-0.077558 -0.022207 0
-0.072533 -0.024360 0
-0.067037 -0.026050 0
-0.061167 -0.027223 0
-0.055030 -0.027837 0
-0.048743 -0.027866 0
-0.042428 -0.027304 0
-0.036209 -0.026162 0
-0.030211 -0.024472 0
-0.024550 -0.022290 0
-0.019332 -0.019693 0
-0.014651 -0.016779 0
-0.010577 -0.013668 0
-0.007163 -0.010499 0
-0.004434 -0.007431 0
-0.002389 -0.004643 0
-0.001005 -0.002329 0
-0.000231 -0.000704 0
0.000000 0.000000 0
0.000000 0.000000 0
-0.000621 0.004062 0
-0.002320 0.008240 0
-0.004952 0.012312 0
-0.008383 0.016118 0
-0.012493 0.019551 0
-0.017171 0.022546 0
-0.022316 0.025071 0
-0.027831 0.027114 0
-0.033629 0.028681 0
-0.039626 0.029785 0
-0.045741 0.030442 0
-0.051898 0.030671 0
-0.058025 0.030486 0
-0.064050 0.029901 0
-0.069903 0.028926 0
-0.075515 0.027568 0
-0.080819 0.025834 0
-0.085749 0.023732 0
-0.090239 0.021272 0
-0.094226 0.018467 0
-0.097649 0.015336 0
-0.100452 0.011905 0
-0.102583 0.008208 0
-0.103997 0.004288 0
-0.104653 0.000198 0
-0.104524 -0.004002 0
-0.103591 -0.008242 0
-0.101845 -0.012444 0
-0.099294 -0.016524 0
-0.095958 -0.020393 0
-0.091873 -0.023961 0
-0.087091 -0.027138 0
-0.081682 -0.029838 0
-0.075730 -0.031984 0
-0.069334 -0.033507 0
-0.062610 -0.034356 0
-0.055681 -0.034497 0
-0.048681 -0.033916 0
-0.041747 -0.032625 0
-0.035017 -0.030659 0
-0.028623 -0.028082 0
-0.022688 -0.024983 0
-0.017320 -0.021477 0
-0.012609 -0.017705 0
-0.008620 -0.013830 0
-0.005394 -0.010037 0
-0.002945 -0.006529 0
-0.001258 -0.003528 0
-0.000296 -0.001269 0
0.000000 0.000000 0
0.000000 0.000000 0
-0.000702 0.005297 0
-0.002612 0.010539 0
-0.005554 0.015522 0
-0.009371 0.020100 0
-0.013922 0.024180 0
-0.019078 0.027709 0
-0.024726 0.030662 0
-0.030760 0.033037 0
-0.037083 0.034847 0
-0.043607 0.036109 0
-0.050248 0.036845 0
-0.056926 0.037075 0
-0.063565 0.036819 0
-0.070091 0.036091 0
-0.076433 0.034902 0
-0.082520 0.033260 0
-0.088282 0.031175 0
-0.093649 0.028654 0
-0.098555 0.025708 0
-0.102932 0.022355 0
-0.106717 0.018615 0
-0.109849 0.014519 0
-0.112273 0.010106 0
-0.113937 0.005426 0
-0.114800 0.000539 0
-0.114824 -0.004485 0
-0.113988 -0.009564 0
-0.112276 -0.014607 0
-0.109691 -0.019517 0
-0.106247 -0.024190 0
-0.101976 -0.028519 0
-0.096928 -0.032398 0
-0.091171 -0.035722 0
-0.084788 -0.038398 0
-0.077884 -0.040343 0
-0.070577 -0.041490 0
-0.063000 -0.041795 0
-0.055298 -0.041238 0
-0.047622 -0.039826 0
-0.040125 -0.037596 0
-0.032956 -0.034619 0
-0.026259 -0.030995 0
-0.020159 -0.026858 0
-0.014765 -0.022368 0
-0.010161 -0.017714 0
-0.006405 -0.013107 0
-0.003525 -0.008779 0
-0.001520 -0.004977 0
-0.000362 -0.001962 0
0.000000 0.000000 0
0.000000 0.000000 0
-0.000778 0.006673 0
-0.002886 0.013092 0
-0.006123 0.019071 0
-0.010306 0.024486 0
-0.015276 0.029259 0
-0.020888 0.033351 0
-0.027016 0.036753 0
-0.033545 0.039472 0
-0.040371 0.041528 0
-0.047401 0.042949 0
-0.054546 0.043760 0
-0.061725 0.043988 0
-0.068860 0.043652 0
-0.075874 0.042770 0
-0.082696 0.041355 0
-0.089252 0.039417 0
-0.095471 0.036964 0
-0.101282 0.034005 0
-0.106615 0.030554 0
-0.111401 0.026629 0
-0.115573 0.022253 0
-0.119068 0.017461 0
-0.121824 0.012296 0
-0.123786 0.006815 0
-0.124905 0.001085 0
-0.125140 -0.004814 0
-0.124460 -0.010791 0
-0.122843 -0.016741 0
-0.120284 -0.022553 0
-0.116792 -0.028108 0
-0.112390 -0.033279 0
-0.107124 -0.037944 0
-0.101058 -0.041979 0
-0.094275 -0.045271 0
-0.086881 -0.047719 0
-0.078997 -0.049240 0
-0.070767 -0.049775 0
-0.062345 -0.049294 0
-0.053896 -0.047798 0
-0.045592 -0.045325 0
-0.037602 -0.041948 0
-0.030089 -0.037780 0
-0.023204 -0.032971 0
-0.017075 -0.027703 0
-0.011809 -0.022190 0
-0.007483 -0.016673 0
-0.004141 -0.011414 0
-0.001796 -0.006690 0
-0.000431 -0.002789 0
0.000000 0.000000 0
0.000000 0.000000 0
-0.000849 0.008183 0
-0.003143 0.015884 0
-0.006655 0.022942 0
-0.011183 0.029253 0
-0.016546 0.034763 0
-0.022589 0.039449 0
-0.029170 0.043319 0
-0.036168 0.046392 0
-0.043473 0.048702 0
-0.050984 0.050283 0
-0.058612 0.051169 0
-0.066271 0.051389 0
-0.073884 0.050969 0
-0.081373 0.049928 0
-0.088664 0.048279 0
-0.095684 0.046035 0
-0.102361 0.043204 0
-0.108622 0.039797 0
-0.114396 0.035827 0
-0.119611 0.031313 0
-0.124199 0.026281 0
-0.128090 0.020769 0
-0.131221 0.014824 0
-0.133530 0.008507 0
-0.134962 0.001893 0
-0.135468 -0.004930 0
-0.135008 -0.011861 0
-0.133553 -0.018782 0
-0.131087 -0.025569 0
-0.127611 -0.032085 0
-0.123140 -0.038187 0
-0.117712 -0.043730 0
-0.111384 -0.048571 0
-0.104237 -0.052576 0
-0.096377 -0.055621 0
-0.087928 -0.057604 0
-0.079040 -0.058448 0
-0.069880 -0.058109 0
-0.060628 -0.056579 0
-0.051475 -0.053890 0
-0.042612 -0.050121 0
-0.034227 -0.045393 0
-0.026496 -0.039872 0
-0.019574 -0.033762 0
-0.013591 -0.027306 0
-0.008646 -0.020776 0
-0.004804 -0.014465 0
-0.002093 -0.008686 0
-0.000505 -0.003758 0
0.000000 0.000000 0
0.000000 -0.000000 0
-0.000915 0.009816 0
-0.003380 0.018898 0
-0.007148 0.027111 0
-0.011994 0.034378 0
-0.017725 0.040665 0
-0.024169 0.045976 0
-0.031175 0.050332 0
-0.038613 0.053773 0
-0.046366 0.056343 0
-0.054332 0.058087 0
-0.062417 0.059048 0
-0.070535 0.059260 0
-0.078606 0.058754 0
-0.086554 0.057551 0
-0.094303 0.055666 0
-0.101780 0.053113 0
-0.108914 0.049901 0
-0.115630 0.046040 0
-0.121857 0.041544 0
-0.127522 0.036432 0
-0.132552 0.030732 0
-0.136877 0.024483 0
-0.140425 0.017736 0
-0.143132 0.010556 0
-0.144933 0.003022 0
-0.145772 -0.004769 0
-0.145601 -0.012706 0
-0.144379 -0.020661 0
-0.142080 -0.028495 0
-0.138692 -0.036055 0
-0.134221 -0.043179 0
-0.128695 -0.049700 0
-0.122161 -0.055453 0
-0.114697 -0.060278 0
-0.106404 -0.064028 0
-0.097409 -0.066576 0
-0.087868 -0.067823 0
-0.077957 -0.067706 0
-0.067875 -0.066203 0
-0.057831 -0.063341 0
-0.048042 -0.059195 0
-0.038724 -0.053896 0
-0.030081 -0.047624 0
-0.022299 -0.040608 0
-0.015535 -0.033118 0
-0.009916 -0.025460 0
-0.005528 -0.017968 0
-0.002416 -0.010989 0
-0.000586 -0.004881 0
0.000000 -0.000000 0
0.000000 -0.000000 0
-0.000974 0.011563 0
-0.003597 0.022117 0
-0.007597 0.031556 0
-0.012736 0.039832 0
-0.018804 0.046937 0
-0.025617 0.052899 0
-0.033015 0.057762 0
-0.040860 0.061583 0
-0.049030 0.064421 0
-0.057420 0.066334 0
-0.065934 0.067372 0
-0.074485 0.067579 0
-0.082991 0.066988 0
-0.091378 0.065624 0
-0.099570 0.063506 0
-0.107495 0.060646 0
-0.115081 0.057054 0
-0.122256 0.052741 0
-0.128945 0.047719 0
-0.135075 0.042008 0
-0.140573 0.035636 0
-0.145362 0.028642 0
-0.149369 0.021079 0
-0.152522 0.013015 0
-0.154750 0.004534 0
-0.155988 -0.004262 0
-0.156175 -0.013254 0
-0.155262 -0.022303 0
-0.153208 -0.031256 0
-0.149988 -0.039943 0
-0.145596 -0.048184 0
-0.140045 -0.055790 0
-0.133375 -0.062568 0
-0.125651 -0.068333 0
-0.116970 -0.072909 0
-0.107460 -0.076140 0
-0.097279 -0.077900 0
-0.086616 -0.078102 0
-0.075682 -0.076705 0
-0.064710 -0.073723 0
-0.053943 -0.069228 0
-0.043628 -0.063355 0
-0.034003 -0.056297 0
-0.025288 -0.048308 0
-0.017673 -0.039688 0
-0.011316 -0.030783 0
-0.006327 -0.021965 0
-0.002774 -0.013629 0
-0.000675 -0.006174 0
0.000000 -0.000000 0
0.000000 -0.000000 0
-0.001028 0.013412 0
-0.003790 0.025521 0
-0.008000 0.036252 0
-0.013403 0.045585 0
-0.019774 0.053545 0
-0.026920 0.060186 0
-0.034674 0.065574 0
-0.042889 0.069789 0
-0.051442 0.072904 0
-0.060221 0.074991 0
-0.069131 0.076112 0
-0.078084 0.076318 0
-0.086999 0.075647 0
-0.095801 0.074129 0
-0.104416 0.071784 0
-0.112774 0.068624 0
-0.120803 0.064661 0
-0.128431 0.059903 0
-0.135587 0.054363 0
-0.142194 0.048060 0
-0.148177 0.041019 0
-0.153459 0.033280 0
-0.157962 0.024897 0
-0.161607 0.015937 0
-0.164316 0.006488 0
-0.166015 -0.003344 0
-0.166632 -0.013432 0
-0.166104 -0.023629 0
-0.164378 -0.033769 0
-0.161414 -0.043667 0
-0.157188 -0.053122 0
-0.151699 -0.061921 0
-0.144972 -0.069847 0
-0.137061 -0.076683 0
-0.128055 -0.082218 0
-0.118076 -0.086266 0
-0.107285 -0.088667 0
-0.095877 -0.089304 0
-0.084081 -0.088109 0
-0.072151 -0.085079 0
-0.060359 -0.080277 0
-0.048985 -0.073836 0
-0.038306 -0.065965 0
-0.028579 -0.056937 0
-0.020036 -0.047090 0
-0.012867 -0.036807 0
-0.007216 -0.026509 0
-0.003174 -0.016641 0
-0.000775 -0.007656 0
0.000000 -0.000000 0
0.000000 -0.000000 0
-0.001074 0.015353 0
-0.003960 0.029090 0
-0.008353 0.041169 0
-0.013987 0.051605 0
-0.020626 0.060454 0
-0.028068 0.067798 0
-0.036137 0.073731 0
-0.044683 0.078351 0
-0.053577 0.081754 0
-0.062708 0.084024 0
-0.071976 0.085235 0
-0.081295 0.085447 0
-0.090586 0.084704 0
-0.099772 0.083041 0
-0.108785 0.080479 0
-0.117553 0.077033 0
-0.126009 0.072712 0
-0.134080 0.067524 0
-0.141697 0.061481 0
-0.148784 0.054599 0
-0.155264 0.046902 0
-0.161059 0.038427 0
-0.166086 0.029227 0
-0.170262 0.019369 0
-0.173501 0.008942 0
-0.175719 -0.001947 0
-0.176836 -0.013164 0
-0.176772 -0.024557 0
-0.175460 -0.035947 0
-0.172843 -0.047134 0
-0.168879 -0.057899 0
-0.163550 -0.068005 0
-0.156862 -0.077206 0
-0.148854 -0.085250 0
-0.139601 -0.091894 0
-0.129219 -0.096910 0
-0.117865 -0.100098 0
-0.105741 -0.101305 0
-0.093088 -0.100431 0
-0.080181 -0.097445 0
-0.067324 -0.092394 0
-0.054833 -0.085408 0
-0.043027 -0.076703 0
-0.032208 -0.066577 0
-0.022652 -0.055400 0
-0.014592 -0.043603 0
-0.008209 -0.031658 0
-0.003622 -0.020070 0
-0.000888 -0.009348 0
0.000000 -0.000000 0
0.000000 0.000000 0
-0.001113 0.017372 0
-0.004103 0.032801 0
-0.008652 0.046279 0
-0.014483 0.057858 0
-0.021352 0.067626 0
-0.029048 0.075696 0
-0.037389 0.082190 0
-0.046222 0.087229 0
-0.055414 0.090929 0
-0.064851 0.093391 0
-0.074436 0.094700 0
-0.084080 0.094927 0
-0.093706 0.094124 0
-0.103240 0.092328 0
-0.112616 0.089565 0
-0.121765 0.085848 0
-0.130620 0.081188 0
-0.139114 0.075592 0
-0.147178 0.069067 0
-0.154737 0.061627 0
-0.161714 0.053294 0
-0.168031 0.044102 0
-0.173601 0.034099 0
-0.178336 0.023352 0
-0.182146 0.011946 0
-0.184937 -0.000009 0
-0.186616 -0.012379 0
-0.187092 -0.025004 0
-0.186281 -0.037698 0
-0.184107 -0.050248 0
-0.180509 -0.062415 0
-0.175448 -0.073939 0
-0.168909 -0.084543 0
-0.160911 -0.093943 0
-0.151512 -0.101854 0
-0.140814 -0.108002 0
-0.128968 -0.112145 0
-0.116177 -0.114081 0
-0.102691 -0.113669 0
-0.088808 -0.110843 0
-0.074859 -0.105624 0
-0.061202 -0.098134 0
-0.048199 -0.088590 0
-0.036206 -0.077312 0
-0.025550 -0.064705 0
-0.016513 -0.051250 0
-0.009319 -0.037480 0
-0.004126 -0.023962 0
-0.001016 -0.011278 0
0.000000 -0.000000 0
0.000000 0.000000 0
-0.001145 0.019456 0
-0.004218 0.036629 0
-0.008894 0.051550 0
-0.014887 0.064305 0
-0.021944 0.075018 0
-0.029849 0.083835 0
-0.038417 0.090905 0
-0.047488 0.096376 0
-0.056929 0.100383 0
-0.066625 0.103046 0
-0.076476 0.104463 0
-0.086397 0.104716 0
-0.096312 0.103865 0
-0.106149 0.101951 0
-0.115844 0.099003 0