# vtk DataFile Version 2.0
generated by CFD-lab course output (written by Tobias Neckel) 
ASCII

DATASET STRUCTURED_GRID
DIMENSIONS  51 51 1 
POINTS 2601 float

0.000000 0.000000 0
0.020000 0.000000 0
0.040000 0.000000 0
0.060000 0.000000 0
0.080000 0.000000 0
0.100000 0.000000 0
0.120000 0.000000 0
0.140000 0.000000 0
0.160000 0.000000 0
0.180000 0.000000 0
0.200000 0.000000 0
0.220000 0.000000 0
0.240000 0.000000 0
0.260000 0.000000 0
0.280000 0.000000 0
0.300000 0.000000 0
0.320000 0.000000 0
0.340000 0.000000 0
0.360000 0.000000 0
0.380000 0.000000 0
0.400000 0.000000 0
0.420000 0.000000 0
0.440000 0.000000 0
0.460000 0.000000 0
0.480000 0.000000 0
0.500000 0.000000 0
0.520000 0.000000 0
0.540000 0.000000 0
0.560000 0.000000 0
0.580000 0.000000 0
0.600000 0.000000 0
0.620000 0.000000 0
0.640000 0.000000 0
0.660000 0.000000 0
0.680000 0.000000 0
0.700000 0.000000 0
0.720000 0.000000 0
0.740000 0.000000 0
0.760000 0.000000 0
0.780000 0.000000 0
0.800000 0.000000 0
0.820000 0.000000 0
0.840000 0.000000 0
0.860000 0.000000 0
0.880000 0.000000 0
0.900000 0.000000 0
0.920000 0.000000 0
0.940000 0.000000 0
0.960000 0.000000 0
0.980000 0.000000 0
1.000000 0.000000 0
0.000000 0.020000 0
0.020000 0.020000 0
0.040000 0.020000 0
0.060000 0.020000 0
0.080000 0.020000 0
0.100000 0.020000 0
0.120000 0.020000 0
0.140000 0.020000 0
0.160000 0.020000 0
0.180000 0.020000 0
0.200000 0.020000 0
0.220000 0.020000 0
0.240000 0.020000 0
0.260000 0.020000 0
0.280000 0.020000 0
0.300000 0.020000 0
0.320000 0.020000 0
0.340000 0.020000 0
0.360000 0.020000 0
0.380000 0.020000 0
0.400000 0.020000 0
0.420000 0.020000 0
0.440000 0.020000 0
0.460000 0.020000 0
0.480000 0.020000 0
0.500000 0.020000 0
0.520000 0.020000 0
0.540000 0.020000 0
0.560000 0.020000 0
0.580000 0.020000 0
0.600000 0.020000 0
0.620000 0.020000 0
0.640000 0.020000 0
0.660000 0.020000 0
0.680000 0.020000 0
0.700000 0.020000 0
0.720000 0.020000 0
0.740000 0.020000 0
0.760000 0.020000 0
0.780000 0.020000 0
0.800000 0.020000 0
0.820000 0.020000 0
0.840000 0.020000 0
0.860000 0.020000 0
0.880000 0.020000 0
0.900000 0.020000 0
0.920000 0.020000 0
0.940000 0.020000 0
0.960000 0.020000 0
0.980000 0.020000 0
1.000000 0.020000 0
0.000000 0.040000 0
0.020000 0.040000 0
0.040000 0.040000 0
0.060000 0.040000 0
0.080000 0.040000 0
0.100000 0.040000 0
0.120000 0.040000 0
0.140000 0.040000 0
0.160000 0.040000 0
0.180000 0.040000 0
0.200000 0.040000 0
0.220000 0.040000 0
0.240000 0.040000 0
0.260000 0.040000 0
0.280000 0.040000 0
0.300000 0.040000 0
0.320000 0.040000 0
0.340000 0.040000 0
0.360000 0.040000 0
0.380000 0.040000 0
0.400000 0.040000 0
0.420000 0.040000 0
0.440000 0.040000 0
0.460000 0.040000 0
0.480000 0.040000 0
0.500000 0.040000 0
0.520000 0.040000 0
0.540000 0.040000 0
0.560000 0.040000 0
0.580000 0.040000 0
0.600000 0.040000 0
0.620000 0.040000 0
0.640000 0.040000 0
0.660000 0.040000 0
0.680000 0.040000 0
0.700000 0.040000 0
0.720000 0.040000 0
0.740000 0.040000 0
0.760000 0.040000 0
0.780000 0.040000 0
0.800000 0.040000 0
0.820000 0.040000 0
0.840000 0.040000 0
0.860000 0.040000 0
0.880000 0.040000 0
0.900000 0.040000 0
0.920000 0.040000 0
0.940000 0.040000 0
0.960000 0.040000 0
0.980000 0.040000 0
1.000000 0.040000 0
0.000000 0.060000 0
0.020000 0.060000 0
0.040000 0.060000 0
0.060000 0.060000 0
0.080000 0.060000 0
0.100000 0.060000 0
0.120000 0.060000 0
0.140000 0.060000 0
0.160000 0.060000 0
0.180000 0.060000 0
0.200000 0.060000 0
0.220000 0.060000 0
0.240000 0.060000 0
0.260000 0.060000 0
0.280000 0.060000 0
0.300000 0.060000 0
0.320000 0.060000 0
0.340000 0.060000 0
0.360000 0.060000 0
0.380000 0.060000 0
0.400000 0.060000 0
0.420000 0.060000 0
0.440000 0.060000 0
0.460000 0.060000 0
0.480000 0.060000 0
0.500000 0.060000 0
0.520000 0.060000 0
0.540000 0.060000 0
0.560000 0.060000 0
0.580000 0.060000 0
0.600000 0.060000 0
0.620000 0.060000 0
0.640000 0.060000 0
0.660000 0.060000 0
0.680000 0.060000 0
0.700000 0.060000 0
0.720000 0.060000 0
0.740000 0.060000 0
0.760000 0.060000 0
0.780000 0.060000 0
0.800000 0.060000 0
0.820000 0.060000 0
0.840000 0.060000 0
0.860000 0.060000 0
0.880000 0.060000 0
0.900000 0.060000 0
0.920000 0.060000 0
0.940000 0.060000 0
0.960000 0.060000 0
0.980000 0.060000 0
1.000000 0.060000 0
0.000000 0.080000 0
0.020000 0.080000 0
0.040000 0.080000 0
0.060000 0.080000 0
0.080000 0.080000 0
0.100000 0.080000 0
0.120000 0.080000 0
0.140000 0.080000 0
0.160000 0.080000 0
0.180000 0.080000 0
0.200000 0.080000 0
0.220000 0.080000 0
0.240000 0.080000 0
0.260000 0.080000 0
0.280000 0.080000 0
0.300000 0.080000 0
0.320000 0.080000 0
0.340000 0.080000 0
0.360000 0.080000 0
0.380000 0.080000 0
0.400000 0.080000 0
0.420000 0.080000 0
0.440000 0.080000 0
0.460000 0.080000 0
0.480000 0.080000 0
0.500000 0.080000 0
0.520000 0.080000 0
0.540000 0.080000 0
0.560000 0.080000 0
0.580000 0.080000 0
0.600000 0.080000 0
0.620000 0.080000 0
0.640000 0.080000 0
0.660000 0.080000 0
0.680000 0.080000 0
0.700000 0.080000 0
0.720000 0.080000 0
0.740000 0.080000 0
0.760000 0.080000 0
0.780000 0.080000 0
0.800000 0.080000 0
0.820000 0.080000 0
0.840000 0.080000 0
0.860000 0.080000 0
0.880000 0.080000 0
0.900000 0.080000 0
0.920000 0.080000 0
0.940000 0.080000 0
0.960000 0.080000 0
0.980000 0.080000 0
1.000000 0.080000 0
0.000000 0.100000 0
0.020000 0.100000 0
0.040000 0.100000 0
0.060000 0.100000 0
0.080000 0.100000 0
0.100000 0.100000 0
0.120000 0.100000 0
0.140000 0.100000 0
0.160000 0.100000 0
0.180000 0.100000 0
0.200000 0.100000 0
0.220000 0.100000 0
0.240000 0.100000 0
0.260000 0.100000 0
0.280000 0.100000 0
0.300000 0.100000 0
0.320000 0.100000 0
0.340000 0.100000 0
0.360000 0.100000 0
0.380000 0.100000 0
0.400000 0.100000 0
0.420000 0.100000 0
0.440000 0.100000 0
0.460000 0.100000 0
0.480000 0.100000 0
0.500000 0.100000 0
0.520000 0.100000 0
0.540000 0.100000 0
0.560000 0.100000 0
0.580000 0.100000 0
0.600000 0.100000 0
0.620000 0.100000 0
0.640000 0.100000 0
0.660000 0.100000 0
0.680000 0.100000 0
0.700000 0.100000 0
0.720000 0.100000 0
0.740000 0.100000 0
0.760000 0.100000 0
0.780000 0.100000 0
0.800000 0.100000 0
0.820000 0.100000 0
0.840000 0.100000 0
0.860000 0.100000 0
0.880000 0.100000 0
0.900000 0.100000 0
0.920000 0.100000 0
0.940000 0.100000 0
0.960000 0.100000 0
0.980000 0.100000 0
1.000000 0.100000 0
0.000000 0.120000 0
0.020000 0.120000 0
0.040000 0.120000 0
0.060000 0.120000 0
0.080000 0.120000 0
0.100000 0.120000 0
0.120000 0.120000 0
0.140000 0.120000 0
0.160000 0.120000 0
0.180000 0.120000 0
0.200000 0.120000 0
0.220000 0.120000 0
0.240000 0.120000 0
0.260000 0.120000 0
0.280000 0.120000 0
0.300000 0.120000 0
0.320000 0.120000 0
0.340000 0.120000 0
0.360000 0.120000 0
0.380000 0.120000 0
0.400000 0.120000 0
0.420000 0.120000 0
0.440000 0.120000 0
0.460000 0.120000 0
0.480000 0.120000 0
0.500000 0.120000 0
0.520000 0.120000 0
0.540000 0.120000 0
0.560000 0.120000 0
0.580000 0.120000 0
0.600000 0.120000 0
0.620000 0.120000 0
0.640000 0.120000 0
0.660000 0.120000 0
0.680000 0.120000 0
0.700000 0.120000 0
0.720000 0.120000 0
0.740000 0.120000 0
0.760000 0.120000 0
0.780000 0.120000 0
0.800000 0.120000 0
0.820000 0.120000 0
0.840000 0.120000 0
0.860000 0.120000 0
0.880000 0.120000 0
0.900000 0.120000 0
0.920000 0.120000 0
0.940000 0.120000 0
0.960000 0.120000 0
0.980000 0.120000 0
1.000000 0.120000 0
0.000000 0.140000 0
0.020000 0.140000 0
0.040000 0.140000 0
0.060000 0.140000 0
0.080000 0.140000 0
0.100000 0.140000 0
0.120000 0.140000 0
0.140000 0.140000 0
0.160000 0.140000 0
0.180000 0.140000 0
0.200000 0.140000 0
0.220000 0.140000 0
0.240000 0.140000 0
0.260000 0.140000 0
0.280000 0.140000 0
0.300000 0.140000 0
0.320000 0.140000 0
0.340000 0.140000 0
0.360000 0.140000 0
0.380000 0.140000 0
0.400000 0.140000 0
0.420000 0.140000 0
0.440000 0.140000 0
0.460000 0.140000 0
0.480000 0.140000 0
0.500000 0.140000 0
0.520000 0.140000 0
0.540000 0.140000 0
0.560000 0.140000 0
0.580000 0.140000 0
0.600000 0.140000 0
0.620000 0.140000 0
0.640000 0.140000 0
0.660000 0.140000 0
0.680000 0.140000 0
0.700000 0.140000 0
0.720000 0.140000 0
0.740000 0.140000 0
0.760000 0.140000 0
0.780000 0.140000 0
0.800000 0.140000 0
0.820000 0.140000 0
0.840000 0.140000 0
0.860000 0.140000 0
0.880000 0.140000 0
0.900000 0.140000 0
0.920000 0.140000 0
0.940000 0.140000 0
0.960000 0.140000 0
0.980000 0.140000 0
1.000000 0.140000 0
0.000000 0.160000 0
0.020000 0.160000 0
0.040000 0.160000 0
0.060000 0.160000 0
0.080000 0.160000 0
0.100000 0.160000 0
0.120000 0.160000 0
0.140000 0.160000 0
0.160000 0.160000 0
0.180000 0.160000 0
0.200000 0.160000 0
0.220000 0.160000 0
0.240000 0.160000 0
0.260000 0.160000 0
0.280000 0.160000 0
0.300000 0.160000 0
0.320000 0.160000 0
0.340000 0.160000 0
0.360000 0.160000 0
0.380000 0.160000 0
0.400000 0.160000 0
0.420000 0.160000 0
0.440000 0.160000 0
0.460000 0.160000 0
0.480000 0.160000 0
0.500000 0.160000 0
0.520000 0.160000 0
0.540000 0.160000 0
0.560000 0.160000 0
0.580000 0.160000 0
0.600000 0.160000 0
0.620000 0.160000 0
0.640000 0.160000 0
0.660000 0.160000 0
0.680000 0.160000 0
0.700000 0.160000 0
0.720000 0.160000 0
0.740000 0.160000 0
0.760000 0.160000 0
0.780000 0.160000 0
0.800000 0.160000 0
0.820000 0.160000 0
0.840000 0.160000 0
0.860000 0.160000 0
0.880000 0.160000 0
0.900000 0.160000 0
0.920000 0.160000 0
0.940000 0.160000 0
0.960000 0.160000 0
0.980000 0.160000 0
1.000000 0.160000 0
0.000000 0.180000 0
0.020000 0.180000 0
0.040000 0.180000 0
0.060000 0.180000 0
0.080000 0.180000 0
0.100000 0.180000 0
0.120000 0.180000 0
0.140000 0.180000 0
0.160000 0.180000 0
0.180000 0.180000 0
0.200000 0.180000 0
0.220000 0.180000 0
0.240000 0.180000 0
0.260000 0.180000 0
0.280000 0.180000 0
0.300000 0.180000 0
0.320000 0.180000 0
0.340000 0.180000 0
0.360000 0.180000 0
0.380000 0.180000 0
0.400000 0.180000 0
0.420000 0.180000 0
0.440000 0.180000 0
0.460000 0.180000 0
0.480000 0.180000 0
0.500000 0.180000 0
0.520000 0.180000 0
0.540000 0.180000 0
0.560000 0.180000 0
0.580000 0.180000 0
0.600000 0.180000 0
0.620000 0.180000 0
[...]
POINT_DATA 2601 

VECTORS velocity float
0.000000 0.000000 0
-0.000000 0.000000 0
-0.000000 0.000000 0
0.000000 0.000000 0
0.000000 0.000000 0
0.000000 0.000000 0
0.000000 0.000000 0
-0.000000 0.000000 0
-0.000000 0.000000 0
-0.000000 0.000000 0
0.000000 0.000000 0
0.000000 0.000000 0
0.000000 0.000000 0
0.000000 0.000000 0
-0.000000 0.000000 0
-0.000000 0.000000 0
-0.000000 0.000000 0
-0.000000 0.000000 0
-0.000000 0.000000 0
-0.000000 0.000000 0
-0.000000 0.000000 0
-0.000000 0.000000 0
-0.000000 0.000000 0
0.000000 0.000000 0
0.000000 0.000000 0
0.000000 0.000000 0
0.000000 0.000000 0
0.000000 0.000000 0
-0.000000 0.000000 0
-0.000000 0.000000 0
-0.000000 0.000000 0
-0.000000 0.000000 0
-0.000000 0.000000 0
-0.000000 0.000000 0
-0.000000 0.000000 0
-0.000000 0.000000 0
-0.000000 0.000000 0
0.000000 0.000000 0
0.000000 0.000000 0
0.000000 0.000000 0
0.000000 0.000000 0
0.000000 0.000000 0
0.000000 0.000000 0
0.000000 0.000000 0
-0.000000 0.000000 0
-0.000000 0.000000 0
-0.000000 0.000000 0
-0.000000 0.000000 0
-0.000000 0.000000 0
-0.000000 0.000000 0
0.000000 0.000000 0
0.000000 -0.000000 0
0.000060 -0.000060 0
0.000082 -0.000023 0
-0.000014 0.000055 0
-0.000255 0.000144 0
-0.000645 0.000228 0
-0.001171 0.000301 0
-0.001816 0.000363 0
-0.002558 0.000412 0
-0.003377 0.000449 0
-0.004254 0.000476 0
-0.005171 0.000494 0
-0.006113 0.000503 0
-0.007064 0.000504 0
-0.008009 0.000498 0
-0.008937 0.000486 0
-0.009834 0.000467 0
-0.010688 0.000442 0
-0.011486 0.000410 0
-0.012216 0.000372 0
-0.012864 0.000326 0
-0.013421 0.000274 0
-0.013872 0.000216 0
-0.014207 0.000152 0
-0.014417 0.000082 0
-0.014493 0.000009 0
-0.014429 -0.000068 0
-0.014222 -0.000147 0
-0.013869 -0.000225 0
-0.013375 -0.000301 0
-0.012745 -0.000373 0
-0.011988 -0.000439 0
-0.011118 -0.000497 0
-0.010153 -0.000544 0
-0.009112 -0.000579 0
-0.008019 -0.000601 0
-0.006899 -0.000607 0
-0.005780 -0.000599 0
-0.004688 -0.000574 0
-0.003652 -0.000535 0
-0.002697 -0.000482 0
-0.001847 -0.000416 0
-0.001122 -0.000339 0
-0.000538 -0.000255 0
-0.000105 -0.000167 0
0.000174 -0.000079 0
0.000305 0.000002 0
0.000306 0.000067 0
0.000213 0.000100 0
0.000082 0.000082 0
0.000000 0.000000 0
0.000000 -0.000000 0
0.000024 -0.000082 0
-0.000075 0.000074 0
-0.000385 0.000337 0
-0.000944 0.000631 0
-0.001754 0.000915 0
-0.002798 0.001170 0
-0.004047 0.001386 0
-0.005468 0.001561 0
-0.007028 0.001697 0
-0.008692 0.001795 0
-0.010430 0.001859 0
-0.012209 0.001892 0
-0.014004 0.001896 0
-0.015787 0.001873 0
-0.017533 0.001825 0
-0.019218 0.001751 0
-0.020819 0.001652 0
-0.022310 0.001528 0
-0.023670 0.001379 0
-0.024875 0.001205 0
-0.025902 0.001007 0
-0.026731 0.000787 0
-0.027341 0.000546 0
-0.027717 0.000286 0
-0.027842 0.000012 0
-0.027708 -0.000272 0
-0.027308 -0.000560 0
-0.026642 -0.000847 0
-0.025715 -0.001125 0
-0.024540 -0.001387 0
-0.023134 -0.001627 0
-0.021523 -0.001835 0
-0.019736 -0.002006 0
-0.017812 -0.002134 0
-0.015791 -0.002213 0
-0.013719 -0.002239 0
-0.011644 -0.002211 0
-0.009616 -0.002128 0
-0.007681 -0.001991 0
-0.005888 -0.001805 0
-0.004276 -0.001575 0
-0.002882 -0.001309 0
-0.001734 -0.001017 0
-0.000848 -0.000712 0
-0.000229 -0.000410 0
0.000133 -0.000132 0
0.000269 0.000092 0
0.000232 0.000224 0
0.000103 0.000213 0
0.000000 0.000000 0
0.000000 0.000000 0
-0.000056 0.000015 0
-0.000350 0.000387 0
-0.000948 0.000924 0
-0.001879 0.001512 0
-0.003140 0.002081 0
-0.004705 0.002594 0
-0.006541 0.003034 0
-0.008605 0.003394 0
-0.010853 0.003674 0
-0.013240 0.003877 0
-0.015723 0.004010 0
-0.018261 0.004077 0
-0.020815 0.004081 0
-0.023349 0.004028 0
-0.025827 0.003918 0
-0.028214 0.003753 0
-0.030475 0.003534 0
-0.032579 0.003262 0
-0.034491 0.002936 0
-0.036180 0.002559 0
-0.037615 0.002131 0
-0.038768 0.001655 0
-0.039611 0.001137 0
-0.040123 0.000583 0
-0.040283 -0.000000 0
-0.040081 -0.000603 0
-0.039508 -0.001213 0
-0.038566 -0.001817 0
-0.037262 -0.002403 0
-0.035614 -0.002954 0
-0.033646 -0.003457 0
-0.031394 -0.003895 0
-0.028899 -0.004255 0
-0.026211 -0.004525 0
-0.023386 -0.004693 0
-0.020485 -0.004754 0
-0.017574 -0.004702 0
-0.014717 -0.004538 0
-0.011981 -0.004263 0
-0.009427 -0.003887 0
-0.007110 -0.003421 0
-0.005080 -0.002882 0
-0.003374 -0.002290 0
-0.002013 -0.001672 0
-0.001007 -0.001060 0
-0.000343 -0.000496 0
0.000014 -0.000032 0
0.000123 0.000267 0
0.000077 0.000314 0
0.000000 0.000000 0
0.000000 0.000000 0
-0.000153 0.000269 0
-0.000677 0.000966 0
-0.001604 0.001866 0
-0.002943 0.002822 0
-0.004676 0.003741 0
-0.006771 0.004572 0
-0.009185 0.005287 0
-0.011869 0.005873 0
-0.014768 0.006331 0
-0.017830 0.006665 0
-0.021004 0.006880 0
-0.024240 0.006985 0
-0.027490 0.006985 0
-0.030707 0.006885 0
-0.033847 0.006689 0
-0.036867 0.006399 0
-0.039724 0.006017 0
-0.042376 0.005543 0
-0.044783 0.004980 0
-0.046904 0.004330 0
-0.048703 0.003595 0
-0.050143 0.002783 0
-0.051193 0.001900 0
-0.051826 0.000958 0
-0.052019 -0.000030 0
-0.051759 -0.001047 0
-0.051037 -0.002075 0
-0.049855 -0.003093 0
-0.048224 -0.004077 0
-0.046164 -0.005003 0
-0.043707 -0.005846 0
-0.040894 -0.006583 0
-0.037777 -0.007190 0
-0.034415 -0.007647 0
-0.030877 -0.007938 0
-0.027236 -0.008051 0
-0.023571 -0.007979 0
-0.019961 -0.007720 0
-0.016486 -0.007282 0
-0.013220 -0.006676 0
-0.010231 -0.005921 0
-0.007580 -0.005046 0
-0.005311 -0.004084 0
-0.003455 -0.003078 0
-0.002024 -0.002080 0
-0.001008 -0.001153 0
-0.000373 -0.000375 0
-0.000058 0.000161 0
0.000026 0.000336 0
0.000000 0.000000 0
0.000000 0.000000 0
-0.000254 0.000692 0
-0.001021 0.001837 0
-0.002297 0.003189 0
-0.004061 0.004583 0
-0.006280 0.005910 0
-0.008910 0.007105 0
-0.011897 0.008132 0
-0.015182 0.008976 0
-0.018707 0.009635 0
-0.022411 0.010114 0
-0.026234 0.010420 0
-0.030121 0.010562 0
-0.034015 0.010548 0
-0.037863 0.010385 0
-0.041614 0.010078 0
-0.045215 0.009630 0
-0.048618 0.009044 0
-0.051772 0.008321 0
-0.054632 0.007464 0
-0.057150 0.006478 0
-0.059283 0.005369 0
-0.060990 0.004146 0
-0.062235 0.002820 0
-0.062987 0.001409 0
-0.063221 -0.000067 0
-0.062921 -0.001585 0
-0.062078 -0.003117 0
-0.060694 -0.004631 0
-0.058781 -0.006094 0
-0.056364 -0.007471 0
-0.053478 -0.008726 0
-0.050170 -0.009825 0
-0.046497 -0.010734 0
-0.042530 -0.011425 0
-0.038344 -0.011872 0
-0.034024 -0.012060 0
-0.029661 -0.011977 0
-0.025344 -0.011623 0
-0.021166 -0.011005 0
-0.017214 -0.010141 0
-0.013567 -0.009061 0
-0.010294 -0.007802 0
-0.007452 -0.006414 0
-0.005079 -0.004958 0
-0.003191 -0.003508 0
-0.001786 -0.002148 0
-0.000833 -0.000982 0
-0.000277 -0.000132 0
-0.000036 0.000256 0
0.000000 0.000000 0
0.000000 0.000000 0
-0.000353 0.001289 0
-0.001366 0.003008 0
-0.002995 0.004906 0
-0.005191 0.006806 0
-0.007901 0.008591 0
-0.011064 0.010189 0
-0.014616 0.011559 0
-0.018490 0.012683 0
-0.022619 0.013559 0
-0.026937 0.014192 0
-0.031378 0.014590 0
-0.035879 0.014766 0
-0.040379 0.014727 0
-0.044819 0.014484 0
-0.049139 0.014041 0
-0.053284 0.013403 0
-0.057196 0.012574 0
-0.060821 0.011558 0
-0.064106 0.010357 0
-0.066999 0.008980 0
-0.069452 0.007435 0
-0.071419 0.005735 0
-0.072860 0.003897 0
-0.073740 0.001945 0
-0.074033 -0.000096 0
-0.073718 -0.002190 0
-0.072786 -0.004302 0
-0.071240 -0.006389 0
-0.069092 -0.008406 0
-0.066367 -0.010306 0
-0.063104 -0.012041 0
-0.059353 -0.013563 0
-0.055179 -0.014830 0
-0.050656 -0.015801 0
-0.045869 -0.016444 0
-0.040911 -0.016734 0
-0.035883 -0.016659 0
-0.030885 -0.016215 0
-0.026021 -0.015412 0
-0.021389 -0.014275 0
-0.017081 -0.012840 0
-0.013177 -0.011160 0
-0.009743 -0.009300 0
-0.006827 -0.007339 0
-0.004455 -0.005373 0
-0.002631 -0.003512 0
-0.001333 -0.001884 0
-0.000514 -0.000636 0
-0.000101 0.000059 0
0.000000 0.000000 0
0.000000 -0.000000 0
-0.000448 0.002057 0
-0.001702 0.004478 0
-0.003681 0.007015 0
-0.006306 0.009490 0
-0.009503 0.011783 0
-0.013193 0.013819 0
-0.017301 0.015557 0
-0.021749 0.016979 0
-0.026465 0.018082 0
-0.031373 0.018872 0
-0.036406 0.019362 0
-0.041493 0.019563 0
-0.046569 0.019488 0
-0.051570 0.019145 0
-0.056431 0.018543 0
-0.061090 0.017687 0
-0.065488 0.016581 0
-0.069563 0.015231 0
-0.073259 0.013642 0
-0.076518 0.011824 0
-0.079288 0.009789 0
-0.081519 0.007554 0
-0.083168 0.005142 0
-0.084195 0.002582 0
-0.084572 -0.000090 0
-0.084274 -0.002831 0
-0.083293 -0.005594 0
-0.081627 -0.008325 0
-0.079288 -0.010967 0
-0.076303 -0.013459 0
-0.072711 -0.015740 0
-0.068565 -0.017750 0
-0.063932 -0.019432 0
-0.058892 -0.020735 0
-0.053536 -0.021617 0
-0.047966 -0.022046 0
-0.042289 -0.022004 0
-0.036619 -0.021485 0
-0.031070 -0.020501 0
-0.025751 -0.019082 0
-0.020766 -0.017273 0
-0.016210 -0.015140 0
-0.012159 -0.012764 0
-0.008672 -0.010246 0
-0.005788 -0.007703 0
-0.003520 -0.005270 0
-0.001856 -0.003099 0
-0.000758 -0.001364 0
-0.000166 -0.000258 0
0.000000 0.000000 0
0.000000 -0.000000 0
-0.000539 0.002991 0
-0.002026 0.006241 0
-0.004345 0.009511 0
-0.007391 0.012629 0
-0.011064 0.015478 0
-0.015271 0.017986 0
-0.019921 0.020114 0
-0.024928 0.021847 0
-0.030211 0.023183 0
-0.035691 0.024133 0
-0.041292 0.024710 0
-0.046942 0.024929 0
-0.052570 0.024804 0
-0.058108 0.024345 0
-0.063488 0.023561 0
-0.068644 0.022460 0
-0.073512 0.021047 0
-0.078027 0.019328 0
-0.082128 0.017312 0
-0.085754 0.015009 0
-0.088849 0.012436 0
-0.091359 0.009615 0
-0.093236 0.006573 0
-0.094438 0.003348 0
-0.094932 -0.000017 0
-0.094692 -0.003469 0
-0.093703 -0.006950 0
-0.091964 -0.010394 0
-0.089483 -0.013730 0
-0.086286 -0.016883 0
-0.082411 -0.019779 0
-0.077912 -0.022342 0
-0.072858 -0.024503 0
-0.067331 -0.026197 0
-0.061430 -0.027370 0
-0.055262 -0.027981 0
-0.048943 -0.028006 0
-0.042597 -0.027435 0
-0.036350 -0.026281 0
-0.030325 -0.024578 0
-0.024639 -0.022381 0
-0.019400 -0.019768 0
-0.014700 -0.016837 0
-0.010611 -0.013709 0
-0.007184 -0.010525 0
-0.004446 -0.007444 0
-0.002395 -0.004646 0
-0.001007 -0.002325 0
-0.000232 -0.000699 0
0.000000 0.000000 0
0.000000 -0.000000 0
-0.000625 0.004083 0
-0.002335 0.008285 0
-0.004982 0.012381 0
-0.008435 0.016210 0
-0.012570 0.019663 0
-0.017277 0.022676 0
-0.022453 0.025215 0
-0.028002 0.027269 0
-0.033834 0.028844 0
-0.039864 0.029953 0
-0.046014 0.030613 0
-0.052205 0.030841 0
-0.058365 0.030654 0
-0.064422 0.030063 0
-0.070305 0.029079 0
-0.075945 0.027711 0
-0.081275 0.025964 0
-0.086227 0.023847 0
-0.090735 0.021369 0
-0.094738 0.018545 0
-0.098173 0.015393 0
-0.100983 0.011941 0
-0.103118 0.008221 0
-0.104531 0.004278 0
-0.105183 0.000164 0
-0.105045 -0.004060 0
-0.104099 -0.008322 0
-0.102337 -0.012545 0
-0.099766 -0.016645 0
-0.096406 -0.020531 0
-0.092295 -0.024114 0
-0.087485 -0.027303 0
-0.082044 -0.030012 0
-0.076060 -0.032162 0
-0.069631 -0.033687 0
-0.062872 -0.034534 0
-0.055910 -0.034668 0
-0.048877 -0.034078 0
-0.041911 -0.032774 0
-0.035151 -0.030792 0
-0.028730 -0.028198 0
-0.022770 -0.025079 0
-0.017381 -0.021553 0
-0.012652 -0.017762 0
-0.008648 -0.013868 0
-0.005411 -0.010059 0
-0.002953 -0.006538 0
-0.001261 -0.003528 0
-0.000297 -0.001265 0
0.000000 0.000000 0
0.000000 -0.000000 0
-0.000706 0.005326 0
-0.002628 0.010599 0
-0.005589 0.015611 0
-0.009430 0.020216 0
-0.014009 0.024320 0
-0.019197 0.027869 0
-0.024879 0.030839 0
-0.030949 0.033227 0
-0.037309 0.035046 0
-0.043870 0.036313 0
-0.050547 0.037051 0
-0.057261 0.037281 0
-0.063935 0.037020 0
-0.070495 0.036284 0
-0.076869 0.035085 0
-0.082985 0.033430 0
-0.088774 0.031328 0
-0.094164 0.028789 0
-0.099089 0.025823 0
-0.103482 0.022447 0
-0.107279 0.018682 0
-0.110420 0.014560 0
-0.112847 0.010121 0
-0.114511 0.005413 0
-0.115369 0.000498 0
-0.115385 -0.004553 0
-0.114535 -0.009658 0
-0.112807 -0.014727 0
-0.110201 -0.019660 0
-0.106733 -0.024354 0
-0.102436 -0.028701 0
-0.097358 -0.032593 0
-0.091569 -0.035928 0
-0.085152 -0.038610 0
-0.078213 -0.040557 0
-0.070870 -0.041702 0
-0.063258 -0.042001 0
-0.055521 -0.041433 0
-0.047810 -0.040007 0
-0.040280 -0.037760 0
-0.033082 -0.034762 0
-0.026356 -0.031116 0
-0.020232 -0.026956 0
-0.014817 -0.022442 0
-0.010196 -0.017766 0
-0.006426 -0.013139 0
-0.003536 -0.008795 0
-0.001525 -0.004981 0
-0.000363 -0.001960 0
0.000000 0.000000 0
0.000000 0.000000 0
-0.000783 0.006712 0
-0.002904 0.013168 0
-0.006162 0.019183 0
-0.010372 0.024629 0
-0.015372 0.029430 0
-0.021018 0.033546 0
-0.027183 0.036966 0
-0.033750 0.039699 0
-0.040615 0.041765 0
-0.047684 0.043192 0
-0.054868 0.044005 0
-0.062085 0.044230 0
-0.069257 0.043888 0
-0.076306 0.042997 0
-0.083161 0.041569 0
-0.089747 0.039615 0
-0.095993 0.037143 0
-0.101828 0.034163 0
-0.107181 0.030687 0
-0.111984 0.026735 0
-0.116169 0.022331 0
-0.119672 0.017509 0
-0.122432 0.012313 0
-0.124394 0.006800 0
-0.125509 0.001038 0
-0.125735 -0.004893 0
-0.125042 -0.010900 0
-0.123409 -0.016880 0
-0.120830 -0.022719 0
-0.117313 -0.028297 0
-0.112884 -0.033489 0
-0.107588 -0.038170 0
-0.101489 -0.042218 0
-0.094672 -0.045518 0
-0.087241 -0.047969 0
-0.079321 -0.049489 0
-0.071052 -0.050018 0
-0.062593 -0.049525 0
-0.054107 -0.048014 0
-0.045768 -0.045521 0
-0.037745 -0.042121 0
-0.030202 -0.037929 0
-0.023289 -0.033093 0
-0.017137 -0.027798 0
-0.011851 -0.022259 0
-0.007509 -0.016719 0
-0.004155 -0.011440 0
-0.001802 -0.006700 0
-0.000433 -0.002790 0
0.000000 0.000000 0
0.000000 0.000000 0
-0.000854 0.008231 0
-0.003163 0.015978 0
-0.006697 0.023077 0
-0.011253 0.029426 0
-0.016650 0.034967 0
-0.022728 0.039680 0
-0.029349 0.043570 0
-0.036387 0.046660 0
-0.043732 0.048980 0
-0.051284 0.050566 0
-0.058952 0.051453 0
-0.066651 0.051669 0
-0.074302 0.051242 0
-0.081827 0.050189 0
-0.089152 0.048525 0
-0.096203 0.046262 0
-0.102908 0.043409 0
-0.109193 0.039977 0
-0.114987 0.035979 0
-0.120220 0.031434 0
-0.124820 0.026370 0
-0.128721 0.020823 0
-0.131856 0.014843 0
-0.134166 0.008490 0
-0.135593 0.001839 0
-0.136091 -0.005020 0
-0.135619 -0.011985 0
-0.134148 -0.018939 0
-0.131662 -0.025756 0
-0.128162 -0.032299 0
-0.123664 -0.038425 0
-0.118206 -0.043988 0
-0.111845 -0.048844 0
-0.104664 -0.052859 0
-0.096766 -0.055909 0
-0.088279 -0.057891 0
-0.079352 -0.058729 0
-0.070153 -0.058379 0
-0.060862 -0.056832 0
-0.051671 -0.054122 0
-0.042773 -0.050328 0
-0.034355 -0.045572 0
-0.026594 -0.040020 0
-0.019645 -0.033880 0
-0.013640 -0.027394 0
-0.008677 -0.020836 0
-0.004821 -0.014501 0
-0.002100 -0.008703 0
-0.000507 -0.003762 0
0.000000 0.000000 0
0.000000 0.000000 0
-0.000920 0.009874 0
-0.003402 0.019011 0
-0.007193 0.027273 0
-0.012069 0.034582 0
-0.017834 0.040905 0
-0.024316 0.046245 0
-0.031362 0.050624 0
-0.038841 0.054082 0
-0.046637 0.056663 0
-0.054645 0.058412 0
-0.062772 0.059372 0
-0.070930 0.059580 0
-0.079040 0.059064 0
-0.087025 0.057847 0
-0.094808 0.055945 0
-0.102317 0.053370 0
-0.109478 0.050132 0
-0.116219 0.046242 0
-0.122467 0.041714 0
-0.128149 0.036568 0
-0.133192 0.030832 0
-0.137526 0.024545 0
-0.141079 0.017758 0
-0.143787 0.010537 0
-0.145585 0.002963 0
-0.146417 -0.004868 0
-0.146234 -0.012844 0
-0.144996 -0.020836 0
-0.142678 -0.028704 0
-0.139267 -0.036295 0
-0.134770 -0.043445 0
-0.129214 -0.049989 0
-0.122649 -0.055760 0
-0.115149 -0.060597 0
-0.106819 -0.064354 0
-0.097785 -0.066902 0
-0.088204 -0.068144 0
-0.078253 -0.068015 0
-0.068130 -0.066495 0
-0.058047 -0.063610 0
-0.048220 -0.059438 0
-0.038866 -0.054108 0
-0.030191 -0.047802 0
-0.022379 -0.040752 0
-0.015591 -0.033228 0
-0.009952 -0.025538 0
-0.005548 -0.018016 0
-0.002425 -0.011014 0
-0.000588 -0.004890 0
0.000000 0.000000 0
0.000000 0.000000 0
-0.000980 0.011632 0
-0.003619 0.022250 0
-0.007644 0.031745 0
-0.012814 0.040068 0
-0.018917 0.047214 0
-0.025768 0.053208 0
-0.033207 0.058096 0
-0.041095 0.061935 0
-0.049309 0.064784 0
-0.057742 0.066701 0
-0.066298 0.067738 0
-0.074889 0.067938 0
-0.083435 0.067336 0
-0.091859 0.065956 0
-0.100085 0.063817 0
-0.108042 0.060933 0
-0.115656 0.057312 0
-0.122854 0.052966 0
-0.129565 0.047909 0
-0.135712 0.042159 0
-0.141223 0.035747 0
-0.146022 0.028710 0
-0.150035 0.021104 0
-0.153189 0.012995 0
-0.155414 0.004469 0
-0.156645 -0.004371 0
-0.156822 -0.013405 0
-0.155894 -0.022495 0
-0.153822 -0.031485 0
-0.150581 -0.040207 0
-0.146164 -0.048478 0
-0.140584 -0.056109 0
-0.133882 -0.062909 0
-0.126124 -0.068689 0
-0.117407 -0.073273 0
-0.107858 -0.076506 0
-0.097637 -0.078262 0
-0.086932 -0.078452 0
-0.075956 -0.077038 0
-0.064943 -0.074032 0
-0.054137 -0.069508 0
-0.043784 -0.063601 0
-0.034124 -0.056507 0
-0.025378 -0.048480 0
-0.017736 -0.039822 0
-0.011356 -0.030880 0
-0.006350 -0.022028 0
-0.002784 -0.013663 0
-0.000677 -0.006187 0
0.000000 -0.000000 0
0.000000 0.000000 0
-0.001034 0.013493 0
-0.003813 0.025675 0
-0.008048 0.036468 0
-0.013482 0.045855 0
-0.019889 0.053860 0
-0.027075 0.060535 0
-0.034870 0.065951 0
-0.043128 0.070183 0
-0.051724 0.073310 0
-0.060547 0.075401 0
-0.069499 0.076520 0
-0.078492 0.076717 0
-0.087446 0.076033 0
-0.096285 0.074497 0
-0.104934 0.072128 0
-0.113323 0.068941 0
-0.121379 0.064945 0
-0.129032 0.060152 0
-0.136208 0.054572 0
-0.142832 0.048226 0
-0.148829 0.041141 0
-0.154121 0.033356 0
-0.158629 0.024925 0
-0.162276 0.015916 0
-0.164983 0.006419 0
-0.166676 -0.003460 0
-0.167284 -0.013594 0
-0.166743 -0.023836 0
-0.165001 -0.034017 0
-0.162016 -0.043953 0
-0.157767 -0.053442 0
-0.152251 -0.062271 0
-0.145494 -0.070220 0
-0.137551 -0.077073 0
-0.128508 -0.082620 0
-0.118492 -0.086672 0
-0.107660 -0.089070 0
-0.096211 -0.089696 0
-0.084373 -0.088484 0
-0.072401 -0.085430 0
-0.060568 -0.080596 0
-0.049154 -0.074120 0
-0.038438 -0.066209 0
-0.028678 -0.057140 0
-0.020105 -0.047249 0
-0.012912 -0.036924 0
-0.007241 -0.026588 0
-0.003185 -0.016687 0
-0.000778 -0.007674 0
0.000000 -0.000000 0
0.000000 -0.000000 0
-0.001081 0.015445 0
-0.003983 0.029264 0
-0.008401 0.041414 0
-0.014066 0.051909 0
-0.020741 0.060807 0
-0.028222 0.068188 0
-0.036333 0.074149 0
-0.044922 0.078789 0
-0.053859 0.082202 0
-0.063032 0.084476 0
-0.072342 0.085684 0
-0.081702 0.085886 0
-0.091030 0.085128 0
-0.100253 0.083444 0
-0.109298 0.080855 0
-0.118097 0.077378 0
-0.126579 0.073022 0
-0.134674 0.067795 0
-0.142311 0.061709 0
-0.149415 0.054780 0
-0.155908 0.047035 0
-0.161712 0.038511 0
-0.166745 0.029259 0
-0.170923 0.019349 0
-0.174161 0.008869 0
-0.176375 -0.002070 0
-0.177483 -0.013337 0
-0.177408 -0.024778 0
-0.176082 -0.036213 0
-0.173446 -0.047441 0
-0.169461 -0.058243 0
-0.164107 -0.068382 0
-0.157392 -0.077609 0
-0.149353 -0.085675 0
-0.140066 -0.092332 0
-0.129647 -0.097354 0
-0.118254 -0.100542 0
-0.106089 -0.101739 0
-0.093394 -0.100848 0
-0.080445 -0.097838 0
-0.067546 -0.092755 0
-0.055014 -0.085731 0
-0.043169 -0.076984 0
-0.032315 -0.066812 0
-0.022728 -0.055588 0
-0.014641 -0.043743 0
-0.008236 -0.031755 0
-0.003634 -0.020127 0
-0.000891 -0.009372 0
0.000000 -0.000000 0
0.000000 -0.000000 0
-0.001120 0.017476 0
-0.004126 0.032995 0
-0.008700 0.046552 0
-0.014561 0.058195 0
-0.021465 0.068016 0
-0.029200 0.076126 0
-0.037582 0.082650 0
-0.046457 0.087709 0
-0.055691 0.091420 0
-0.065170 0.093884 0
-0.074795 0.095189 0
-0.084478 0.095405 0
-0.094140 0.094584 0
-0.103710 0.092765 0
-0.113117 0.089972 0
-0.122294 0.086222 0
-0.131176 0.081523 0
-0.139693 0.075884 0
-0.147775 0.069313 0
-0.155350 0.061823 0
-0.162340 0.053439 0
-0.168666 0.044193 0
-0.174241 0.034135 0
-0.178979 0.023332 0
-0.182789 0.011871 0
-0.185576 -0.000138 0
-0.187248 -0.012561 0
-0.187715 -0.025237 0
-0.186891 -0.037979 0
-0.184701 -0.050574 0
-0.181085 -0.062781 0
-0.176002 -0.074340 0
-0.169438 -0.084975 0
-0.161411 -0.094399 0
-0.151981 -0.102326 0
-0.141248 -0.108484 0
-0.129366 -0.112628 0
-0.116535 -0.114556 0
-0.103009 -0.114128 0
-0.089083 -0.111278 0
-0.075092 -0.106027 0
-0.061393 -0.098497 0
-0.048350 -0.088909 0
-0.036321 -0.077581 0
-0.025631 -0.064923 0
-0.016566 -0.051415 0
-0.009350 -0.037595 0
-0.004139 -0.024032 0
-0.001019 -0.011308 0
0.000000 -0.000000 0
0.000000 -0.000000 0
-0.001151 0.019571 0
-0.004240 0.036844 0
-0.008940 0.051849 0
-0.014962 0.064675 0
-0.022053 0.075445 0
-0.029996 0.084305 0
-0.038603 0.091406 0
-0.047715 0.096898 0
-0.057196 0.100915 0
-0.066932 0.103580 0
-0.076822 0.104992 0
-0.086781 0.105231 0
-0.096730 0.104360 0
-0.106600 0.102420 0
-0.116325 0.099440 0