# vtk DataFile Version 2.0
generated by CFD-lab course output (written by Tobias Neckel) 
ASCII

DATASET STRUCTURED_GRID
DIMENSIONS  51 51 1 
POINTS 2601 float

0.000000 0.000000 0
0.020000 0.000000 0
0.040000 0.000000 0
0.060000 0.000000 0
0.080000 0.000000 0
0.100000 0.000000 0
0.120000 0.000000 0
0.140000 0.000000 0
0.160000 0.000000 0
0.180000 0.000000 0
0.200000 0.000000 0
0.220000 0.000000 0
0.240000 0.000000 0
0.260000 0.000000 0
0.280000 0.000000 0
0.300000 0.000000 0
0.320000 0.000000 0
0.340000 0.000000 0
0.360000 0.000000 0
0.380000 0.000000 0
0.400000 0.000000 0
0.420000 0.000000 0
0.440000 0.000000 0
0.460000 0.000000 0
0.480000 0.000000 0
0.500000 0.000000 0
0.520000 0.000000 0
0.540000 0.000000 0
0.560000 0.000000 0
0.580000 0.000000 0
0.600000 0.000000 0
0.620000 0.000000 0
0.640000 0.000000 0
0.660000 0.000000 0
0.680000 0.000000 0
0.700000 0.000000 0
0.720000 0.000000 0
0.740000 0.000000 0
0.760000 0.000000 0
0.780000 0.000000 0
0.800000 0.000000 0
0.820000 0.000000 0
0.840000 0.000000 0
0.860000 0.000000 0
0.880000 0.000000 0
0.900000 0.000000 0
0.920000 0.000000 0
0.940000 0.000000 0
0.960000 0.000000 0
0.980000 0.000000 0
1.000000 0.000000 0
0.000000 0.020000 0
0.020000 0.020000 0
0.040000 0.020000 0
0.060000 0.020000 0
0.080000 0.020000 0
0.100000 0.020000 0
0.120000 0.020000 0
0.140000 0.020000 0
0.160000 0.020000 0
0.180000 0.020000 0
0.200000 0.020000 0
0.220000 0.020000 0
0.240000 0.020000 0
0.260000 0.020000 0
0.280000 0.020000 0
0.300000 0.020000 0
0.320000 0.020000 0
0.340000 0.020000 0
0.360000 0.020000 0
0.380000 0.020000 0
0.400000 0.020000 0
0.420000 0.020000 0
0.440000 0.020000 0
0.460000 0.020000 0
0.480000 0.020000 0
0.500000 0.020000 0
0.520000 0.020000 0
0.540000 0.020000 0
0.560000 0.020000 0
0.580000 0.020000 0
0.600000 0.020000 0
0.620000 0.020000 0
0.640000 0.020000 0
0.660000 0.020000 0
0.680000 0.020000 0
0.700000 0.020000 0
0.720000 0.020000 0
0.740000 0.020000 0
0.760000 0.020000 0
0.780000 0.020000 0
0.800000 0.020000 0
0.820000 0.020000 0
0.840000 0.020000 0
0.860000 0.020000 0
0.880000 0.020000 0
0.900000 0.020000 0
0.920000 0.020000 0
0.940000 0.020000 0
0.960000 0.020000 0
0.980000 0.020000 0
1.000000 0.020000 0
0.000000 0.040000 0
0.020000 0.040000 0
0.040000 0.040000 0
0.060000 0.040000 0
0.080000 0.040000 0
0.100000 0.040000 0
0.120000 0.040000 0
0.140000 0.040000 0
0.160000 0.040000 0
0.180000 0.040000 0
0.200000 0.040000 0
0.220000 0.040000 0
0.240000 0.040000 0
0.260000 0.040000 0
0.280000 0.040000 0
0.300000 0.040000 0
0.320000 0.040000 0
0.340000 0.040000 0
0.360000 0.040000 0
0.380000 0.040000 0
0.400000 0.040000 0
0.420000 0.040000 0
0.440000 0.040000 0
0.460000 0.040000 0
0.480000 0.040000 0
0.500000 0.040000 0
0.520000 0.040000 0
0.540000 0.040000 0
0.560000 0.040000 0
0.580000 0.040000 0
0.600000 0.040000 0
0.620000 0.040000 0
0.640000 0.040000 0
0.660000 0.040000 0
0.680000 0.040000 0
0.700000 0.040000 0
0.720000 0.040000 0
0.740000 0.040000 0
0.760000 0.040000 0
0.780000 0.040000 0
0.800000 0.040000 0
0.820000 0.040000 0
0.840000 0.040000 0
0.860000 0.040000 0
0.880000 0.040000 0
0.900000 0.040000 0
0.920000 0.040000 0
0.940000 0.040000 0
0.960000 0.040000 0
0.980000 0.040000 0
1.000000 0.040000 0
0.000000 0.060000 0
0.020000 0.060000 0
0.040000 0.060000 0
0.060000 0.060000 0
0.080000 0.060000 0
0.100000 0.060000 0
0.120000 0.060000 0
0.140000 0.060000 0
0.160000 0.060000 0
0.180000 0.060000 0
0.200000 0.060000 0
0.220000 0.060000 0
0.240000 0.060000 0
0.260000 0.060000 0
0.280000 0.060000 0
0.300000 0.060000 0
0.320000 0.060000 0
0.340000 0.060000 0
0.360000 0.060000 0
0.380000 0.060000 0
0.400000 0.060000 0
0.420000 0.060000 0
0.440000 0.060000 0
0.460000 0.060000 0
0.480000 0.060000 0
0.500000 0.060000 0
0.520000 0.060000 0
0.540000 0.060000 0
0.560000 0.060000 0
0.580000 0.060000 0
0.600000 0.060000 0
0.620000 0.060000 0
0.640000 0.060000 0
0.660000 0.060000 0
0.680000 0.060000 0
0.700000 0.060000 0
0.720000 0.060000 0
0.740000 0.060000 0
0.760000 0.060000 0
0.780000 0.060000 0
0.800000 0.060000 0
0.820000 0.060000 0
0.840000 0.060000 0
0.860000 0.060000 0
0.880000 0.060000 0
0.900000 0.060000 0
0.920000 0.060000 0
0.940000 0.060000 0
0.960000 0.060000 0
0.980000 0.060000 0
1.000000 0.060000 0
0.000000 0.080000 0
0.020000 0.080000 0
0.040000 0.080000 0
0.060000 0.080000 0
0.080000 0.080000 0
0.100000 0.080000 0
0.120000 0.080000 0
0.140000 0.080000 0
0.160000 0.080000 0
0.180000 0.080000 0
0.200000 0.080000 0
0.220000 0.080000 0
0.240000 0.080000 0
0.260000 0.080000 0
0.280000 0.080000 0
0.300000 0.080000 0
0.320000 0.080000 0
0.340000 0.080000 0
0.360000 0.080000 0
0.380000 0.080000 0
0.400000 0.080000 0
0.420000 0.080000 0
0.440000 0.080000 0
0.460000 0.080000 0
0.480000 0.080000 0
0.500000 0.080000 0
0.520000 0.080000 0
0.540000 0.080000 0
0.560000 0.080000 0
0.580000 0.080000 0
0.600000 0.080000 0
0.620000 0.080000 0
0.640000 0.080000 0
0.660000 0.080000 0
0.680000 0.080000 0
0.700000 0.080000 0
0.720000 0.080000 0
0.740000 0.080000 0
0.760000 0.080000 0
0.780000 0.080000 0
0.800000 0.080000 0
0.820000 0.080000 0
0.840000 0.080000 0
0.860000 0.080000 0
0.880000 0.080000 0
0.900000 0.080000 0
0.920000 0.080000 0
0.940000 0.080000 0
0.960000 0.080000 0
0.980000 0.080000 0
1.000000 0.080000 0
0.000000 0.100000 0
0.020000 0.100000 0
0.040000 0.100000 0
0.060000 0.100000 0
0.080000 0.100000 0
0.100000 0.100000 0
0.120000 0.100000 0
0.140000 0.100000 0
0.160000 0.100000 0
0.180000 0.100000 0
0.200000 0.100000 0
0.220000 0.100000 0
0.240000 0.100000 0
0.260000 0.100000 0
0.280000 0.100000 0
0.300000 0.100000 0
0.320000 0.100000 0
0.340000 0.100000 0
0.360000 0.100000 0
0.380000 0.100000 0
0.400000 0.100000 0
0.420000 0.100000 0
0.440000 0.100000 0
0.460000 0.100000 0
0.480000 0.100000 0
0.500000 0.100000 0
0.520000 0.100000 0
0.540000 0.100000 0
0.560000 0.100000 0
0.580000 0.100000 0
0.600000 0.100000 0
0.620000 0.100000 0
0.640000 0.100000 0
0.660000 0.100000 0
0.680000 0.100000 0
0.700000 0.100000 0
0.720000 0.100000 0
0.740000 0.100000 0
0.760000 0.100000 0
0.780000 0.100000 0
0.800000 0.100000 0
0.820000 0.100000 0
0.840000 0.100000 0
0.860000 0.100000 0
0.880000 0.100000 0
0.900000 0.100000 0
0.920000 0.100000 0
0.940000 0.100000 0
0.960000 0.100000 0
0.980000 0.100000 0
1.000000 0.100000 0
0.000000 0.120000 0
0.020000 0.120000 0
0.040000 0.120000 0
0.060000 0.120000 0
0.080000 0.120000 0
0.100000 0.120000 0
0.120000 0.120000 0
0.140000 0.120000 0
0.160000 0.120000 0
0.180000 0.120000 0
0.200000 0.120000 0
0.220000 0.120000 0
0.240000 0.120000 0
0.260000 0.120000 0
0.280000 0.120000 0
0.300000 0.120000 0
0.320000 0.120000 0
0.340000 0.120000 0
0.360000 0.120000 0
0.380000 0.120000 0
0.400000 0.120000 0
0.420000 0.120000 0
0.440000 0.120000 0
0.460000 0.120000 0
0.480000 0.120000 0
0.500000 0.120000 0
0.520000 0.120000 0
0.540000 0.120000 0
0.560000 0.120000 0
0.580000 0.120000 0
0.600000 0.120000 0
0.620000 0.120000 0
0.640000 0.120000 0
0.660000 0.120000 0
0.680000 0.120000 0
0.700000 0.120000 0
0.720000 0.120000 0
0.740000 0.120000 0
0.760000 0.120000 0
0.780000 0.120000 0
0.800000 0.120000 0
0.820000 0.120000 0
0.840000 0.120000 0
0.860000 0.120000 0
0.880000 0.120000 0
0.900000 0.120000 0
0.920000 0.120000 0
0.940000 0.120000 0
0.960000 0.120000 0
0.980000 0.120000 0
1.000000 0.120000 0
0.000000 0.140000 0
0.020000 0.140000 0
0.040000 0.140000 0
0.060000 0.140000 0
0.080000 0.140000 0
0.100000 0.140000 0
0.120000 0.140000 0
0.140000 0.140000 0
0.160000 0.140000 0
0.180000 0.140000 0
0.200000 0.140000 0
0.220000 0.140000 0
0.240000 0.140000 0
0.260000 0.140000 0
0.280000 0.140000 0
0.300000 0.140000 0
0.320000 0.140000 0
0.340000 0.140000 0
0.360000 0.140000 0
0.380000 0.140000 0
0.400000 0.140000 0
0.420000 0.140000 0
0.440000 0.140000 0
0.460000 0.140000 0
0.480000 0.140000 0
0.500000 0.140000 0
0.520000 0.140000 0
0.540000 0.140000 0
0.560000 0.140000 0
0.580000 0.140000 0
0.600000 0.140000 0
0.620000 0.140000 0
0.640000 0.140000 0
0.660000 0.140000 0
0.680000 0.140000 0
0.700000 0.140000 0
0.720000 0.140000 0
0.740000 0.140000 0
0.760000 0.140000 0
0.780000 0.140000 0
0.800000 0.140000 0
0.820000 0.140000 0
0.840000 0.140000 0
0.860000 0.140000 0
0.880000 0.140000 0
0.900000 0.140000 0
0.920000 0.140000 0
0.940000 0.140000 0
0.960000 0.140000 0
0.980000 0.140000 0
1.000000 0.140000 0
0.000000 0.160000 0
0.020000 0.160000 0
0.040000 0.160000 0
0.060000 0.160000 0
0.080000 0.160000 0
0.100000 0.160000 0
0.120000 0.160000 0
0.140000 0.160000 0
0.160000 0.160000 0
0.180000 0.160000 0
0.200000 0.160000 0
0.220000 0.160000 0
0.240000 0.160000 0
0.260000 0.160000 0
0.280000 0.160000 0
0.300000 0.160000 0
0.320000 0.160000 0
0.340000 0.160000 0
0.360000 0.160000 0
0.380000 0.160000 0
0.400000 0.160000 0
0.420000 0.160000 0
0.440000 0.160000 0
0.460000 0.160000 0
0.480000 0.160000 0
0.500000 0.160000 0
0.520000 0.160000 0
0.540000 0.160000 0
0.560000 0.160000 0
0.580000 0.160000 0
0.600000 0.160000 0
0.620000 0.160000 0
0.640000 0.160000 0
0.660000 0.160000 0
0.680000 0.160000 0
0.700000 0.160000 0
0.720000 0.160000 0
0.740000 0.160000 0
0.760000 0.160000 0
0.780000 0.160000 0
0.800000 0.160000 0
0.820000 0.160000 0
0.840000 0.160000 0
0.860000 0.160000 0
0.880000 0.160000 0
0.900000 0.160000 0
0.920000 0.160000 0
0.940000 0.160000 0
0.960000 0.160000 0
0.980000 0.160000 0
1.000000 0.160000 0
0.000000 0.180000 0
0.020000 0.180000 0
0.040000 0.180000 0
0.060000 0.180000 0
0.080000 0.180000 0
0.100000 0.180000 0
0.120000 0.180000 0
0.140000 0.180000 0
0.160000 0.180000 0
0.180000 0.180000 0
0.200000 0.180000 0
0.220000 0.180000 0
0.240000 0.180000 0
0.260000 0.180000 0
0.280000 0.180000 0
0.300000 0.180000 0
0.320000 0.180000 0
0.340000 0.180000 0
0.360000 0.180000 0
0.380000 0.180000 0
0.400000 0.180000 0
0.420000 0.180000 0
0.440000 0.180000 0
0.460000 0.180000 0
0.480000 0.180000 0
0.500000 0.180000 0
0.520000 0.180000 0
0.540000 0.180000 0
0.560000 0.180000 0
0.580000 0.180000 0
0.600000 0.180000 0
0.620000 0.180000 0
[...]
POINT_DATA 2601 

VECTORS velocity float
0.000000 0.000000 0
-0.000001 0.000000 0
-0.000001 0.000000 0
0.000000 0.000000 0
0.000001 0.000000 0
0.000000 0.000000 0
0.000000 0.000000 0
-0.000000 0.000000 0
-0.000000 0.000000 0
-0.000000 0.000000 0
-0.000000 0.000000 0
0.000000 0.000000 0
0.000000 0.000000 0
0.000000 0.000000 0
0.000000 0.000000 0
0.000000 0.000000 0
-0.000000 0.000000 0
-0.000000 0.000000 0
-0.000000 0.000000 0
-0.000000 0.000000 0
-0.000000 0.000000 0
-0.000000 0.000000 0
-0.000000 0.000000 0
-0.000000 0.000000 0
-0.000000 0.000000 0
-0.000000 0.000000 0
-0.000000 0.000000 0
-0.000000 0.000000 0
-0.000000 0.000000 0
-0.000000 0.000000 0
-0.000000 0.000000 0
-0.000000 0.000000 0
-0.000000 0.000000 0
-0.000000 0.000000 0
-0.000000 0.000000 0
-0.000000 0.000000 0
-0.000000 0.000000 0
-0.000000 0.000000 0
0.000000 0.000000 0
0.000000 0.000000 0
0.000000 0.000000 0
0.000000 0.000000 0
0.000000 0.000000 0
0.000000 0.000000 0
0.000000 0.000000 0
0.000000 0.000000 0
0.000000 0.000000 0
0.000000 0.000000 0
0.000000 0.000000 0
-0.000000 0.000000 0
0.000000 0.000000 0
0.000000 -0.000001 0
0.000060 -0.000060 0
0.000081 -0.000023 0
-0.000014 0.000055 0
-0.000255 0.000144 0
-0.000645 0.000228 0
-0.001170 0.000302 0
-0.001814 0.000363 0
-0.002556 0.000411 0
-0.003375 0.000449 0
-0.004252 0.000476 0
-0.005168 0.000493 0
-0.006109 0.000502 0
-0.007059 0.000504 0
-0.008004 0.000498 0
-0.008931 0.000486 0
-0.009828 0.000467 0
-0.010681 0.000442 0
-0.011478 0.000410 0
-0.012207 0.000371 0
-0.012856 0.000326 0
-0.013412 0.000274 0
-0.013863 0.000216 0
-0.014198 0.000152 0
-0.014408 0.000082 0
-0.014484 0.000009 0
-0.014420 -0.000068 0
-0.014213 -0.000147 0
-0.013861 -0.000225 0
-0.013367 -0.000301 0
-0.012737 -0.000373 0
-0.011981 -0.000439 0
-0.011112 -0.000497 0
-0.010147 -0.000544 0
-0.009107 -0.000579 0
-0.008015 -0.000600 0
-0.006896 -0.000607 0
-0.005777 -0.000598 0
-0.004687 -0.000574 0
-0.003651 -0.000535 0
-0.002697 -0.000482 0
-0.001847 -0.000416 0
-0.001122 -0.000339 0
-0.000539 -0.000255 0
-0.000106 -0.000167 0
0.000173 -0.000079 0
0.000304 0.000002 0
0.000306 0.000066 0
0.000213 0.000100 0
0.000082 0.000082 0
0.000000 -0.000000 0
0.000000 -0.000001 0
0.000024 -0.000082 0
-0.000075 0.000075 0
-0.000385 0.000337 0
-0.000944 0.000631 0
-0.001753 0.000915 0
-0.002796 0.001169 0
-0.004044 0.001385 0
-0.005465 0.001560 0
-0.007024 0.001695 0
-0.008687 0.001794 0
-0.010423 0.001858 0
-0.012201 0.001891 0
-0.013994 0.001895 0
-0.015776 0.001872 0
-0.017521 0.001823 0
-0.019205 0.001749 0
-0.020804 0.001650 0
-0.022295 0.001527 0
-0.023654 0.001378 0
-0.024858 0.001204 0
-0.025885 0.001007 0
-0.026713 0.000786 0
-0.027323 0.000545 0
-0.027698 0.000286 0
-0.027824 0.000012 0
-0.027690 -0.000271 0
-0.027290 -0.000559 0
-0.026625 -0.000846 0
-0.025699 -0.001124 0
-0.024525 -0.001386 0
-0.023121 -0.001625 0
-0.021511 -0.001834 0
-0.019726 -0.002005 0
-0.017803 -0.002132 0
-0.015783 -0.002211 0
-0.013713 -0.002238 0
-0.011639 -0.002209 0
-0.009612 -0.002126 0
-0.007679 -0.001990 0
-0.005886 -0.001804 0
-0.004275 -0.001574 0
-0.002882 -0.001308 0
-0.001734 -0.001017 0
-0.000849 -0.000712 0
-0.000230 -0.000410 0
0.000132 -0.000133 0
0.000268 0.000092 0
0.000231 0.000224 0
0.000102 0.000213 0
0.000000 0.000000 0
0.000000 0.000000 0
-0.000056 0.000015 0
-0.000349 0.000387 0
-0.000948 0.000924 0
-0.001878 0.001511 0
-0.003138 0.002080 0
-0.004703 0.002592 0
-0.006537 0.003032 0
-0.008600 0.003391 0
-0.010846 0.003671 0
-0.013231 0.003875 0
-0.015712 0.004007 0
-0.018248 0.004074 0
-0.020801 0.004079 0
-0.023333 0.004025 0
-0.025809 0.003915 0
-0.028194 0.003751 0
-0.030454 0.003532 0
-0.032556 0.003260 0
-0.034467 0.002934 0
-0.036155 0.002557 0
-0.037589 0.002129 0
-0.038741 0.001654 0
-0.039584 0.001137 0
-0.040095 0.000583 0
-0.040256 0.000000 0
-0.040054 -0.000602 0
-0.039482 -0.001211 0
-0.038541 -0.001816 0
-0.037239 -0.002401 0
-0.035592 -0.002952 0
-0.033626 -0.003454 0
-0.031376 -0.003892 0
-0.028883 -0.004252 0
-0.026197 -0.004521 0
-0.023374 -0.004690 0
-0.020475 -0.004751 0
-0.017566 -0.004699 0
-0.014711 -0.004535 0
-0.011976 -0.004261 0
-0.009423 -0.003885 0
-0.007109 -0.003419 0
-0.005080 -0.002880 0
-0.003374 -0.002289 0
-0.002014 -0.001671 0
-0.001008 -0.001060 0
-0.000344 -0.000497 0
0.000013 -0.000032 0
0.000123 0.000266 0
0.000076 0.000313 0
0.000000 0.000000 0
0.000000 0.000000 0
-0.000153 0.000269 0
-0.000676 0.000966 0
-0.001603 0.001865 0
-0.002941 0.002820 0
-0.004673 0.003739 0
-0.006767 0.004569 0
-0.009179 0.005283 0
-0.011860 0.005869 0
-0.014757 0.006327 0
-0.017818 0.006660 0
-0.020989 0.006875 0
-0.024223 0.006980 0
-0.027470 0.006980 0
-0.030685 0.006880 0
-0.033823 0.006684 0
-0.036841 0.006395 0
-0.039696 0.006013 0
-0.042346 0.005540 0
-0.044751 0.004977 0
-0.046871 0.004327 0
-0.048668 0.003593 0
-0.050108 0.002781 0
-0.051157 0.001899 0
-0.051790 0.000958 0
-0.051984 -0.000029 0
-0.051724 -0.001045 0
-0.051003 -0.002073 0
-0.049823 -0.003090 0
-0.048193 -0.004073 0
-0.046135 -0.004998 0
-0.043680 -0.005841 0
-0.040870 -0.006577 0
-0.037755 -0.007184 0
-0.034396 -0.007641 0
-0.030860 -0.007933 0
-0.027222 -0.008046 0
-0.023560 -0.007974 0
-0.019952 -0.007716 0
-0.016479 -0.007278 0
-0.013215 -0.006672 0
-0.010228 -0.005918 0
-0.007578 -0.005044 0
-0.005310 -0.004082 0
-0.003455 -0.003077 0
-0.002025 -0.002080 0
-0.001009 -0.001154 0
-0.000373 -0.000375 0
-0.000058 0.000161 0
0.000026 0.000336 0
0.000000 0.000000 0
0.000000 0.000001 0
-0.000253 0.000692 0
-0.001020 0.001836 0
-0.002295 0.003188 0
-0.004058 0.004580 0
-0.006276 0.005906 0
-0.008904 0.007099 0
-0.011888 0.008126 0
-0.015171 0.008969 0
-0.018693 0.009628 0
-0.022394 0.010106 0
-0.026215 0.010412 0
-0.030098 0.010554 0
-0.033990 0.010541 0
-0.037835 0.010378 0
-0.041583 0.010071 0
-0.045182 0.009623 0
-0.048582 0.009037 0
-0.051735 0.008315 0
-0.054592 0.007459 0
-0.057109 0.006474 0
-0.059240 0.005366 0
-0.060947 0.004144 0
-0.062191 0.002819 0
-0.062943 0.001410 0
-0.063178 -0.000066 0
-0.062879 -0.001582 0
-0.062037 -0.003113 0
-0.060654 -0.004626 0
-0.058744 -0.006088 0
-0.056329 -0.007464 0
-0.053445 -0.008719 0
-0.050139 -0.009817 0
-0.046470 -0.010726 0
-0.042505 -0.011416 0
-0.038323 -0.011864 0
-0.034006 -0.012052 0
-0.029646 -0.011969 0
-0.025332 -0.011616 0
-0.021157 -0.010998 0
-0.017206 -0.010136 0
-0.013561 -0.009056 0
-0.010291 -0.007798 0
-0.007450 -0.006412 0
-0.005078 -0.004957 0
-0.003191 -0.003507 0
-0.001786 -0.002148 0
-0.000833 -0.000983 0
-0.000277 -0.000133 0
-0.000036 0.000255 0
0.000000 0.000000 0
0.000000 0.000000 0
-0.000352 0.001289 0
-0.001365 0.003006 0
-0.002992 0.004903 0
-0.005187 0.006801 0
-0.007895 0.008585 0
-0.011056 0.010181 0
-0.014605 0.011550 0
-0.018476 0.012674 0
-0.022602 0.013549 0
-0.026916 0.014181 0
-0.031354 0.014580 0
-0.035852 0.014755 0
-0.040349 0.014717 0
-0.044785 0.014473 0
-0.049102 0.014031 0
-0.053244 0.013394 0
-0.057153 0.012565 0
-0.060776 0.011550 0
-0.064059 0.010351 0
-0.066951 0.008975 0
-0.069402 0.007431 0
-0.071368 0.005732 0
-0.072809 0.003896 0
-0.073689 0.001945 0
-0.073982 -0.000094 0
-0.073668 -0.002187 0
-0.072738 -0.004297 0
-0.071193 -0.006383 0
-0.069047 -0.008398 0
-0.066325 -0.010297 0
-0.063065 -0.012031 0
-0.059317 -0.013552 0
-0.055146 -0.014818 0
-0.050627 -0.015789 0
-0.045843 -0.016432 0
-0.040889 -0.016723 0
-0.035864 -0.016648 0
-0.030869 -0.016205 0
-0.026008 -0.015403 0
-0.021379 -0.014267 0
-0.017073 -0.012834 0
-0.013171 -0.011155 0
-0.009739 -0.009296 0
-0.006825 -0.007336 0
-0.004454 -0.005372 0
-0.002631 -0.003512 0
-0.001333 -0.001884 0
-0.000514 -0.000637 0
-0.000101 0.000059 0
0.000000 0.000000 0
0.000000 0.000000 0
-0.000448 0.002056 0
-0.001701 0.004476 0
-0.003678 0.007010 0
-0.006302 0.009483 0
-0.009496 0.011775 0
-0.013183 0.013809 0
-0.017287 0.015546 0
-0.021732 0.016966 0
-0.026444 0.018068 0
-0.031349 0.018858 0
-0.036377 0.019348 0
-0.041461 0.019549 0
-0.046533 0.019474 0
-0.051530 0.019132 0
-0.056388 0.018530 0
-0.061044 0.017674 0
-0.065439 0.016570 0
-0.069512 0.015221 0
-0.073205 0.013634 0
-0.076462 0.011817 0
-0.079231 0.009784 0
-0.081461 0.007550 0
-0.083109 0.005140 0
-0.084137 0.002583 0
-0.084514 -0.000087 0
-0.084218 -0.002826 0
-0.083238 -0.005587 0
-0.081573 -0.008317 0
-0.079237 -0.010957 0
-0.076255 -0.013447 0
-0.072666 -0.015727 0
-0.068524 -0.017735 0
-0.063894 -0.019416 0
-0.058858 -0.020719 0
-0.053506 -0.021602 0
-0.047940 -0.022031 0
-0.042267 -0.021989 0
-0.036600 -0.021471 0
-0.031054 -0.020489 0
-0.025738 -0.019071 0
-0.020757 -0.017264 0
-0.016203 -0.015132 0
-0.012154 -0.012758 0
-0.008669 -0.010242 0
-0.005786 -0.007701 0
-0.003519 -0.005269 0
-0.001855 -0.003100 0
-0.000758 -0.001365 0
-0.000166 -0.000259 0
0.000000 0.000000 0
0.000000 -0.000000 0
-0.000538 0.002989 0
-0.002024 0.006236 0
-0.004342 0.009504 0
-0.007385 0.012619 0
-0.011055 0.015467 0
-0.015259 0.017973 0
-0.019905 0.020099 0
-0.024908 0.021830 0
-0.030187 0.023166 0
-0.035663 0.024115 0
-0.041260 0.024692 0
-0.046906 0.024911 0
-0.052529 0.024786 0
-0.058063 0.024327 0
-0.063439 0.023545 0
-0.068592 0.022445 0
-0.073456 0.021033 0
-0.077969 0.019316 0
-0.082067 0.017301 0
-0.085692 0.015001 0
-0.088785 0.012430 0
-0.091294 0.009611 0
-0.093170 0.006572 0
-0.094373 0.003349 0
-0.094867 -0.000013 0
-0.094628 -0.003463 0
-0.093641 -0.006941 0
-0.091904 -0.010383 0
-0.089426 -0.013716 0
-0.086232 -0.016868 0
-0.082360 -0.019762 0
-0.077865 -0.022324 0
-0.072814 -0.024484 0
-0.067292 -0.026177 0
-0.061395 -0.027350 0
-0.055231 -0.027962 0
-0.048916 -0.027987 0
-0.042575 -0.027417 0
-0.036331 -0.026265 0
-0.030309 -0.024564 0
-0.024627 -0.022369 0
-0.019391 -0.019758 0
-0.014693 -0.016829 0
-0.010606 -0.013704 0
-0.007181 -0.010522 0
-0.004444 -0.007443 0
-0.002394 -0.004645 0
-0.001007 -0.002326 0
-0.000232 -0.000700 0
0.000000 0.000000 0
0.000000 -0.000000 0
-0.000625 0.004080 0
-0.002333 0.008279 0
-0.004979 0.012372 0
-0.008428 0.016197 0
-0.012560 0.019648 0
-0.017263 0.022659 0
-0.022435 0.025195 0
-0.027979 0.027249 0
-0.033807 0.028823 0
-0.039833 0.029931 0
-0.045977 0.030590 0
-0.052165 0.030819 0
-0.058320 0.030631 0
-0.064372 0.030041 0
-0.070251 0.029059 0
-0.075888 0.027691 0
-0.081214 0.025947 0
-0.086163 0.023832 0
-0.090669 0.021356 0
-0.094669 0.018535 0
-0.098103 0.015386 0
-0.100913 0.011936 0
-0.103047 0.008219 0
-0.104459 0.004279 0
-0.105112 0.000168 0
-0.104976 -0.004052 0
-0.104031 -0.008312 0
-0.102271 -0.012532 0
-0.099703 -0.016629 0
-0.096346 -0.020513 0
-0.092239 -0.024094 0
-0.087432 -0.027281 0
-0.081996 -0.029989 0
-0.076016 -0.032138 0
-0.069591 -0.033663 0
-0.062837 -0.034510 0
-0.055879 -0.034645 0
-0.048851 -0.034056 0
-0.041889 -0.032754 0
-0.035133 -0.030775 0
-0.028716 -0.028182 0
-0.022759 -0.025066 0
-0.017373 -0.021543 0
-0.012646 -0.017754 0
-0.008644 -0.013863 0
-0.005409 -0.010056 0
-0.002952 -0.006537 0
-0.001261 -0.003528 0
-0.000297 -0.001266 0
0.000000 0.000000 0
0.000000 -0.000000 0
-0.000706 0.005322 0
-0.002626 0.010591 0
-0.005584 0.015599 0
-0.009422 0.020201 0
-0.013997 0.024302 0
-0.019182 0.027848 0
-0.024859 0.030815 0
-0.030923 0.033202 0
-0.037279 0.035019 0
-0.043835 0.036286 0
-0.050507 0.037024 0
-0.057216 0.037254 0
-0.063886 0.036994 0
-0.070442 0.036259 0
-0.076811 0.035060 0
-0.082923 0.033407 0
-0.088708 0.031308 0
-0.094096 0.028771 0
-0.099018 0.025808 0
-0.103409 0.022434 0
-0.107204 0.018673 0
-0.110344 0.014555 0
-0.112771 0.010119 0
-0.114435 0.005415 0
-0.115293 0.000503 0
-0.115310 -0.004544 0
-0.114462 -0.009646 0
-0.112736 -0.014711 0
-0.110133 -0.019641 0
-0.106669 -0.024332 0
-0.102375 -0.028676 0
-0.097301 -0.032567 0
-0.091516 -0.035900 0
-0.085104 -0.038582 0
-0.078169 -0.040529 0
-0.070831 -0.041674 0
-0.063223 -0.041974 0
-0.055491 -0.041407 0
-0.047785 -0.039983 0
-0.040259 -0.037738 0
-0.033065 -0.034743 0
-0.026343 -0.031100 0
-0.020222 -0.026943 0
-0.014810 -0.022433 0
-0.010192 -0.017759 0
-0.006424 -0.013135 0
-0.003535 -0.008793 0
-0.001524 -0.004981 0
-0.000363 -0.001960 0
0.000000 0.000000 0
0.000000 -0.000000 0
-0.000782 0.006706 0
-0.002902 0.013158 0
-0.006156 0.019168 0
-0.010363 0.024610 0
-0.015359 0.029407 0
-0.021001 0.033520 0
-0.027161 0.036937 0
-0.033722 0.039669 0
-0.040583 0.041734 0
-0.047646 0.043159 0
-0.054825 0.043972 0
-0.062037 0.044197 0
-0.069204 0.043857 0
-0.076249 0.042967 0
-0.083099 0.041541 0
-0.089681 0.039588 0
-0.095924 0.037119 0
-0.101755 0.034142 0
-0.107106 0.030670 0
-0.111906 0.026721 0
-0.116089 0.022320 0
-0.119591 0.017502 0
-0.122351 0.012311 0
-0.124313 0.006802 0
-0.125429 0.001044 0
-0.125656 -0.004883 0
-0.124965 -0.010886 0
-0.123334 -0.016861 0
-0.120757 -0.022697 0
-0.117243 -0.028271 0
-0.112818 -0.033461 0
-0.107527 -0.038140 0
-0.101432 -0.042186 0
-0.094619 -0.045485 0
-0.087193 -0.047936 0
-0.079278 -0.049456 0
-0.071014 -0.049985 0
-0.062560 -0.049495 0
-0.054079 -0.047985 0
-0.045744 -0.045495 0
-0.037726 -0.042098 0
-0.030187 -0.037909 0
-0.023278 -0.033076 0
-0.017129 -0.027785 0
-0.011846 -0.022250 0
-0.007505 -0.016713 0
-0.004153 -0.011436 0
-0.001801 -0.006699 0
-0.000433 -0.002790 0
0.000000 0.000000 0
0.000000 0.000000 0
-0.000853 0.008224 0
-0.003160 0.015965 0
-0.006692 0.023059 0
-0.011244 0.029403 0
-0.016636 0.034940 0
-0.022710 0.039649 0
-0.029325 0.043537 0
-0.036358 0.046624 0
-0.043697 0.048943 0
-0.051244 0.050529 0
-0.058907 0.051415 0
-0.066601 0.051632 0
-0.074246 0.051205 0
-0.081767 0.050154 0
-0.089087 0.048492 0
-0.096134 0.046232 0
-0.102835 0.043382 0
-0.109117 0.039953 0
-0.114909 0.035959 0
-0.120139 0.031418 0
-0.124738 0.026358 0
-0.128637 0.020816 0
-0.131772 0.014840 0
-0.134081 0.008492 0
-0.135509 0.001846 0
-0.136008 -0.005008 0
-0.135537 -0.011968 0
-0.134068 -0.018918 0
-0.131586 -0.025732 0
-0.128089 -0.032271 0
-0.123594 -0.038393 0
-0.118140 -0.043953 0
-0.111784 -0.048808 0
-0.104607 -0.052821 0
-0.096714 -0.055870 0
-0.088232 -0.057853 0
-0.079311 -0.058692 0
-0.070116 -0.058343 0
-0.060831 -0.056798 0
-0.051645 -0.054091 0
-0.042751 -0.050300 0
-0.034338 -0.045548 0
-0.026581 -0.040001 0
-0.019636 -0.033865 0
-0.013633 -0.027383 0
-0.008673 -0.020828 0
-0.004818 -0.014497 0
-0.002099 -0.008701 0
-0.000507 -0.003762 0
0.000000 -0.000000 0
0.000000 0.000000 0
-0.000919 0.009867 0
-0.003399 0.018996 0
-0.007186 0.027251 0
-0.012059 0.034555 0
-0.017820 0.040873 0
-0.024296 0.046209 0
-0.031337 0.050585 0
-0.038811 0.054041 0
-0.046601 0.056620 0
-0.054603 0.058369 0
-0.062724 0.059329 0
-0.070878 0.059537 0
-0.078983 0.059023 0
-0.086962 0.057807 0
-0.094741 0.055908 0
-0.102245 0.053336 0
-0.109403 0.050102 0
-0.116141 0.046216 0
-0.122386 0.041692 0
-0.128066 0.036550 0
-0.133107 0.030819 0
-0.137439 0.024536 0
-0.140992 0.017755 0
-0.143699 0.010539 0
-0.145498 0.002971 0
-0.146331 -0.004855 0
-0.146149 -0.012825 0
-0.144914 -0.020813 0
-0.142599 -0.028676 0
-0.139191 -0.036263 0
-0.134697 -0.043410 0
-0.129145 -0.049951 0
-0.122584 -0.055719 0
-0.115089 -0.060555 0
-0.106763 -0.064310 0
-0.097735 -0.066859 0
-0.088159 -0.068101 0
-0.078213 -0.067974 0
-0.068096 -0.066456 0
-0.058018 -0.063574 0
-0.048196 -0.059405 0
-0.038847 -0.054080 0
-0.030176 -0.047779 0
-0.022369 -0.040732 0
-0.015584 -0.033213 0
-0.009947 -0.025528 0
-0.005545 -0.018010 0
-0.002424 -0.011011 0
-0.000588 -0.004889 0
0.000000 -0.000000 0
0.000000 0.000000 0
-0.000979 0.011623 0
-0.003616 0.022232 0
-0.007638 0.031720 0
-0.012804 0.040037 0
-0.018902 0.047177 0
-0.025748 0.053167 0
-0.033182 0.058051 0
-0.041063 0.061888 0
-0.049272 0.064735 0
-0.057699 0.066652 0
-0.066249 0.067689 0
-0.074835 0.067890 0
-0.083376 0.067289 0
-0.091795 0.065912 0
-0.100016 0.063776 0
-0.107969 0.060895 0
-0.115579 0.057278 0
-0.122775 0.052936 0
-0.129482 0.047884 0
-0.135628 0.042139 0
-0.141136 0.035732 0
-0.145934 0.028701 0
-0.149946 0.021100 0
-0.153100 0.012998 0
-0.155326 0.004478 0
-0.156558 -0.004356 0
-0.156736 -0.013385 0
-0.155810 -0.022469 0
-0.153740 -0.031455 0
-0.150502 -0.040172 0
-0.146088 -0.048439 0
-0.140513 -0.056067 0
-0.133815 -0.062864 0
-0.126061 -0.068641 0
-0.117349 -0.073225 0
-0.107805 -0.076457 0
-0.097589 -0.078213 0
-0.086890 -0.078406 0
-0.075920 -0.076993 0
-0.064912 -0.073991 0
-0.054111 -0.069471 0
-0.043764 -0.063568 0
-0.034108 -0.056479 0
-0.025366 -0.048457 0
-0.017728 -0.039804 0
-0.011350 -0.030867 0
-0.006347 -0.022020 0
-0.002783 -0.013659 0
-0.000677 -0.006186 0
0.000000 -0.000000 0
0.000000 0.000000 0
-0.001033 0.013482 0
-0.003810 0.025654 0
-0.008042 0.036439 0
-0.013471 0.045819 0
-0.019874 0.053818 0
-0.027054 0.060488 0
-0.034843 0.065900 0
-0.043096 0.070131 0
-0.051686 0.073255 0
-0.060503 0.075346 0
-0.069450 0.076466 0
-0.078438 0.076664 0
-0.087387 0.075982 0
-0.096220 0.074448 0
-0.104865 0.072082 0
-0.113250 0.068899 0
-0.121303 0.064907 0
-0.128952 0.060119 0
-0.136125 0.054545 0
-0.142747 0.048204 0
-0.148742 0.041125 0
-0.154033 0.033346 0
-0.158540 0.024921 0
-0.162187 0.015919 0
-0.164894 0.006428 0
-0.166588 -0.003445 0
-0.167197 -0.013573 0
-0.166658 -0.023808 0
-0.164918 -0.033984 0
-0.161936 -0.043915 0
-0.157690 -0.053399 0
-0.152178 -0.062224 0
-0.145425 -0.070171 0
-0.137486 -0.077021 0
-0.128448 -0.082567 0
-0.118436 -0.086618 0
-0.107610 -0.089016 0
-0.096167 -0.089644 0
-0.084334 -0.088434 0
-0.072368 -0.085383 0
-0.060540 -0.080554 0
-0.049132 -0.074082 0
-0.038420 -0.066177 0
-0.028665 -0.057113 0
-0.020096 -0.047228 0
-0.012906 -0.036909 0
-0.007238 -0.026578 0
-0.003183 -0.016681 0
-0.000777 -0.007672 0
0.000000 -0.000000 0
0.000000 0.000000 0
-0.001080 0.015433 0
-0.003980 0.029241 0
-0.008395 0.041381 0
-0.014056 0.051869 0
-0.020726 0.060760 0
-0.028202 0.068136 0
-0.036307 0.074094 0
-0.044890 0.078731 0
-0.053822 0.082143 0
-0.062989 0.084416 0
-0.072294 0.085624 0
-0.081648 0.085827 0
-0.090971 0.085071 0
-0.100189 0.083390 0
-0.109230 0.080805 0
-0.118024 0.077332 0
-0.126503 0.072981 0
-0.134595 0.067759 0
-0.142229 0.061679 0
-0.149331 0.054756 0
-0.155822 0.047017 0
-0.161625 0.038499 0
-0.166657 0.029254 0
-0.170835 0.019352 0
-0.174073 0.008879 0
-0.176288 -0.002053 0
-0.177397 -0.013314 0
-0.177324 -0.024748 0
-0.175999 -0.036177 0
-0.173366 -0.047400 0
-0.169384 -0.058198 0
-0.164033 -0.068332 0
-0.157321 -0.077556 0
-0.149286 -0.085618 0
-0.140004 -0.092274 0
-0.129590 -0.097295 0
-0.118202 -0.100483 0
-0.106043 -0.101682 0
-0.093353 -0.100793 0
-0.080410 -0.097785 0
-0.067517 -0.092707 0
-0.054990 -0.085688 0
-0.043150 -0.076947 0
-0.032301 -0.066781 0
-0.022717 -0.055563 0
-0.014635 -0.043725 0
-0.008233 -0.031742 0
-0.003632 -0.020119 0
-0.000891 -0.009369 0
0.000000 -0.000000 0
0.000000 0.000000 0
-0.001119 0.017462 0
-0.004123 0.032970 0
-0.008693 0.046515 0
-0.014551 0.058150 0
-0.021450 0.067964 0
-0.029179 0.076069 0
-0.037556 0.082589 0
-0.046425 0.087645 0
-0.055654 0.091355 0
-0.065127 0.093819 0
-0.074747 0.095124 0
-0.084425 0.095341 0
-0.094082 0.094523 0
-0.103647 0.092707 0
-0.113050 0.089918 0
-0.122224 0.086172 0
-0.131102 0.081478 0
-0.139616 0.075845 0
-0.147696 0.069280 0
-0.155268 0.061797 0
-0.162257 0.053420 0
-0.168581 0.044181 0
-0.174156 0.034131 0
-0.178894 0.023335 0
-0.182703 0.011881 0
-0.185491 -0.000121 0
-0.187164 -0.012537 0
-0.187632 -0.025206 0
-0.186809 -0.037942 0
-0.184622 -0.050530 0
-0.181008 -0.062732 0
-0.175928 -0.074287 0
-0.169367 -0.084918 0
-0.161345 -0.094338 0
-0.151918 -0.102263 0
-0.141191 -0.108420 0
-0.129313 -0.112563 0
-0.116487 -0.114493 0
-0.102966 -0.114067 0
-0.089047 -0.111220 0
-0.075061 -0.105974 0
-0.061367 -0.098449 0
-0.048330 -0.088866 0
-0.036305 -0.077546 0
-0.025621 -0.064894 0
-0.016559 -0.051393 0
-0.009346 -0.037580 0
-0.004138 -0.024023 0
-0.001019 -0.011304 0
0.000000 -0.000000 0
0.000000 -0.000000 0
-0.001150 0.019556 0
-0.004237 0.036816 0
-0.008934 0.051810 0
-0.014952 0.064625 0
-0.022039 0.075388 0
-0.029976 0.084242 0
-0.038578 0.091340 0
-0.047685 0.096828 0
-0.057161 0.100845 0
-0.066891 0.103509 0
-0.076776 0.104921 0
-0.086730 0.105163 0
-0.096674 0.104294 0
-0.106540 0.102358 0
-0.116261 0.099382 0