# vtk DataFile Version 2.0
generated by CFD-lab course output (written by Tobias Neckel) 
ASCII

DATASET STRUCTURED_GRID
DIMENSIONS  51 51 1 
POINTS 2601 float

0.000000 0.000000 0
0.020000 0.000000 0
0.040000 0.000000 0
0.060000 0.000000 0
0.080000 0.000000 0
0.100000 0.000000 0
0.120000 0.000000 0
0.140000 0.000000 0
0.160000 0.000000 0
0.180000 0.000000 0
0.200000 0.000000 0
0.220000 0.000000 0
0.240000 0.000000 0
0.260000 0.000000 0
0.280000 0.000000 0
0.300000 0.000000 0
0.320000 0.000000 0
0.340000 0.000000 0
0.360000 0.000000 0
0.380000 0.000000 0
0.400000 0.000000 0
0.420000 0.000000 0
0.440000 0.000000 0
0.460000 0.000000 0
0.480000 0.000000 0
0.500000 0.000000 0
0.520000 0.000000 0
0.540000 0.000000 0
0.560000 0.000000 0
0.580000 0.000000 0
0.600000 0.000000 0
0.620000 0.000000 0
0.640000 0.000000 0
0.660000 0.000000 0
0.680000 0.000000 0
0.700000 0.000000 0
0.720000 0.000000 0
0.740000 0.000000 0
0.760000 0.000000 0
0.780000 0.000000 0
0.800000 0.000000 0
0.820000 0.000000 0
0.840000 0.000000 0
0.860000 0.000000 0
0.880000 0.000000 0
0.900000 0.000000 0
0.920000 0.000000 0
0.940000 0.000000 0
0.960000 0.000000 0
0.980000 0.000000 0
1.000000 0.000000 0
0.000000 0.020000 0
0.020000 0.020000 0
0.040000 0.020000 0
0.060000 0.020000 0
0.080000 0.020000 0
0.100000 0.020000 0
0.120000 0.020000 0
0.140000 0.020000 0
0.160000 0.020000 0
0.180000 0.020000 0
0.200000 0.020000 0
0.220000 0.020000 0
0.240000 0.020000 0
0.260000 0.020000 0
0.280000 0.020000 0
0.300000 0.020000 0
0.320000 0.020000 0
0.340000 0.020000 0
0.360000 0.020000 0
0.380000 0.020000 0
0.400000 0.020000 0
0.420000 0.020000 0
0.440000 0.020000 0
0.460000 0.020000 0
0.480000 0.020000 0
0.500000 0.020000 0
0.520000 0.020000 0
0.540000 0.020000 0
0.560000 0.020000 0
0.580000 0.020000 0
0.600000 0.020000 0
0.620000 0.020000 0
0.640000 0.020000 0
0.660000 0.020000 0
0.680000 0.020000 0
0.700000 0.020000 0
0.720000 0.020000 0
0.740000 0.020000 0
0.760000 0.020000 0
0.780000 0.020000 0
0.800000 0.020000 0
0.820000 0.020000 0
0.840000 0.020000 0
0.860000 0.020000 0
0.880000 0.020000 0
0.900000 0.020000 0
0.920000 0.020000 0
0.940000 0.020000 0
0.960000 0.020000 0
0.980000 0.020000 0
1.000000 0.020000 0
0.000000 0.040000 0
0.020000 0.040000 0
0.040000 0.040000 0
0.060000 0.040000 0
0.080000 0.040000 0
0.100000 0.040000 0
0.120000 0.040000 0
0.140000 0.040000 0
0.160000 0.040000 0
0.180000 0.040000 0
0.200000 0.040000 0
0.220000 0.040000 0
0.240000 0.040000 0
0.260000 0.040000 0
0.280000 0.040000 0
0.300000 0.040000 0
0.320000 0.040000 0
0.340000 0.040000 0
0.360000 0.040000 0
0.380000 0.040000 0
0.400000 0.040000 0
0.420000 0.040000 0
0.440000 0.040000 0
0.460000 0.040000 0
0.480000 0.040000 0
0.500000 0.040000 0
0.520000 0.040000 0
0.540000 0.040000 0
0.560000 0.040000 0
0.580000 0.040000 0
0.600000 0.040000 0
0.620000 0.040000 0
0.640000 0.040000 0
0.660000 0.040000 0
0.680000 0.040000 0
0.700000 0.040000 0
0.720000 0.040000 0
0.740000 0.040000 0
0.760000 0.040000 0
0.780000 0.040000 0
0.800000 0.040000 0
0.820000 0.040000 0
0.840000 0.040000 0
0.860000 0.040000 0
0.880000 0.040000 0
0.900000 0.040000 0
0.920000 0.040000 0
0.940000 0.040000 0
0.960000 0.040000 0
0.980000 0.040000 0
1.000000 0.040000 0
0.000000 0.060000 0
0.020000 0.060000 0
0.040000 0.060000 0
0.060000 0.060000 0
0.080000 0.060000 0
0.100000 0.060000 0
0.120000 0.060000 0
0.140000 0.060000 0
0.160000 0.060000 0
0.180000 0.060000 0
0.200000 0.060000 0
0.220000 0.060000 0
0.240000 0.060000 0
0.260000 0.060000 0
0.280000 0.060000 0
0.300000 0.060000 0
0.320000 0.060000 0
0.340000 0.060000 0
0.360000 0.060000 0
0.380000 0.060000 0
0.400000 0.060000 0
0.420000 0.060000 0
0.440000 0.060000 0
0.460000 0.060000 0
0.480000 0.060000 0
0.500000 0.060000 0
0.520000 0.060000 0
0.540000 0.060000 0
0.560000 0.060000 0
0.580000 0.060000 0
0.600000 0.060000 0
0.620000 0.060000 0
0.640000 0.060000 0
0.660000 0.060000 0
0.680000 0.060000 0
0.700000 0.060000 0
0.720000 0.060000 0
0.740000 0.060000 0
0.760000 0.060000 0
0.780000 0.060000 0
0.800000 0.060000 0
0.820000 0.060000 0
0.840000 0.060000 0
0.860000 0.060000 0
0.880000 0.060000 0
0.900000 0.060000 0
0.920000 0.060000 0
0.940000 0.060000 0
0.960000 0.060000 0
0.980000 0.060000 0
1.000000 0.060000 0
0.000000 0.080000 0
0.020000 0.080000 0
0.040000 0.080000 0
0.060000 0.080000 0
0.080000 0.080000 0
0.100000 0.080000 0
0.120000 0.080000 0
0.140000 0.080000 0
0.160000 0.080000 0
0.180000 0.080000 0
0.200000 0.080000 0
0.220000 0.080000 0
0.240000 0.080000 0
0.260000 0.080000 0
0.280000 0.080000 0
0.300000 0.080000 0
0.320000 0.080000 0
0.340000 0.080000 0
0.360000 0.080000 0
0.380000 0.080000 0
0.400000 0.080000 0
0.420000 0.080000 0
0.440000 0.080000 0
0.460000 0.080000 0
0.480000 0.080000 0
0.500000 0.080000 0
0.520000 0.080000 0
0.540000 0.080000 0
0.560000 0.080000 0
0.580000 0.080000 0
0.600000 0.080000 0
0.620000 0.080000 0
0.640000 0.080000 0
0.660000 0.080000 0
0.680000 0.080000 0
0.700000 0.080000 0
0.720000 0.080000 0
0.740000 0.080000 0
0.760000 0.080000 0
0.780000 0.080000 0
0.800000 0.080000 0
0.820000 0.080000 0
0.840000 0.080000 0
0.860000 0.080000 0
0.880000 0.080000 0
0.900000 0.080000 0
0.920000 0.080000 0
0.940000 0.080000 0
0.960000 0.080000 0
0.980000 0.080000 0
1.000000 0.080000 0
0.000000 0.100000 0
0.020000 0.100000 0
0.040000 0.100000 0
0.060000 0.100000 0
0.080000 0.100000 0
0.100000 0.100000 0
0.120000 0.100000 0
0.140000 0.100000 0
0.160000 0.100000 0
0.180000 0.100000 0
0.200000 0.100000 0
0.220000 0.100000 0
0.240000 0.100000 0
0.260000 0.100000 0
0.280000 0.100000 0
0.300000 0.100000 0
0.320000 0.100000 0
0.340000 0.100000 0
0.360000 0.100000 0
0.380000 0.100000 0
0.400000 0.100000 0
0.420000 0.100000 0
0.440000 0.100000 0
0.460000 0.100000 0
0.480000 0.100000 0
0.500000 0.100000 0
0.520000 0.100000 0
0.540000 0.100000 0
0.560000 0.100000 0
0.580000 0.100000 0
0.600000 0.100000 0
0.620000 0.100000 0
0.640000 0.100000 0
0.660000 0.100000 0
0.680000 0.100000 0
0.700000 0.100000 0
0.720000 0.100000 0
0.740000 0.100000 0
0.760000 0.100000 0
0.780000 0.100000 0
0.800000 0.100000 0
0.820000 0.100000 0
0.840000 0.100000 0
0.860000 0.100000 0
0.880000 0.100000 0
0.900000 0.100000 0
0.920000 0.100000 0
0.940000 0.100000 0
0.960000 0.100000 0
0.980000 0.100000 0
1.000000 0.100000 0
0.000000 0.120000 0
0.020000 0.120000 0
0.040000 0.120000 0
0.060000 0.120000 0
0.080000 0.120000 0
0.100000 0.120000 0
0.120000 0.120000 0
0.140000 0.120000 0
0.160000 0.120000 0
0.180000 0.120000 0
0.200000 0.120000 0
0.220000 0.120000 0
0.240000 0.120000 0
0.260000 0.120000 0
0.280000 0.120000 0
0.300000 0.120000 0
0.320000 0.120000 0
0.340000 0.120000 0
0.360000 0.120000 0
0.380000 0.120000 0
0.400000 0.120000 0
0.420000 0.120000 0
0.440000 0.120000 0
0.460000 0.120000 0
0.480000 0.120000 0
0.500000 0.120000 0
0.520000 0.120000 0
0.540000 0.120000 0
0.560000 0.120000 0
0.580000 0.120000 0
0.600000 0.120000 0
0.620000 0.120000 0
0.640000 0.120000 0
0.660000 0.120000 0
0.680000 0.120000 0
0.700000 0.120000 0
0.720000 0.120000 0
0.740000 0.120000 0
0.760000 0.120000 0
0.780000 0.120000 0
0.800000 0.120000 0
0.820000 0.120000 0
0.840000 0.120000 0
0.860000 0.120000 0
0.880000 0.120000 0
0.900000 0.120000 0
0.920000 0.120000 0
0.940000 0.120000 0
0.960000 0.120000 0
0.980000 0.120000 0
1.000000 0.120000 0
0.000000 0.140000 0
0.020000 0.140000 0
0.040000 0.140000 0
0.060000 0.140000 0
0.080000 0.140000 0
0.100000 0.140000 0
0.120000 0.140000 0
0.140000 0.140000 0
0.160000 0.140000 0
0.180000 0.140000 0
0.200000 0.140000 0
0.220000 0.140000 0
0.240000 0.140000 0
0.260000 0.140000 0
0.280000 0.140000 0
0.300000 0.140000 0
0.320000 0.140000 0
0.340000 0.140000 0
0.360000 0.140000 0
0.380000 0.140000 0
0.400000 0.140000 0
0.420000 0.140000 0
0.440000 0.140000 0
0.460000 0.140000 0
0.480000 0.140000 0
0.500000 0.140000 0
0.520000 0.140000 0
0.540000 0.140000 0
0.560000 0.140000 0
0.580000 0.140000 0
0.600000 0.140000 0
0.620000 0.140000 0
0.640000 0.140000 0
0.660000 0.140000 0
0.680000 0.140000 0
0.700000 0.140000 0
0.720000 0.140000 0
0.740000 0.140000 0
0.760000 0.140000 0
0.780000 0.140000 0
0.800000 0.140000 0
0.820000 0.140000 0
0.840000 0.140000 0
0.860000 0.140000 0
0.880000 0.140000 0
0.900000 0.140000 0
0.920000 0.140000 0
0.940000 0.140000 0
0.960000 0.140000 0
0.980000 0.140000 0
1.000000 0.140000 0
0.000000 0.160000 0
0.020000 0.160000 0
0.040000 0.160000 0
0.060000 0.160000 0
0.080000 0.160000 0
0.100000 0.160000 0
0.120000 0.160000 0
0.140000 0.160000 0
0.160000 0.160000 0
0.180000 0.160000 0
0.200000 0.160000 0
0.220000 0.160000 0
0.240000 0.160000 0
0.260000 0.160000 0
0.280000 0.160000 0
0.300000 0.160000 0
0.320000 0.160000 0
0.340000 0.160000 0
0.360000 0.160000 0
0.380000 0.160000 0
0.400000 0.160000 0
0.420000 0.160000 0
0.440000 0.160000 0
0.460000 0.160000 0
0.480000 0.160000 0
0.500000 0.160000 0
0.520000 0.160000 0
0.540000 0.160000 0
0.560000 0.160000 0
0.580000 0.160000 0
0.600000 0.160000 0
0.620000 0.160000 0
0.640000 0.160000 0
0.660000 0.160000 0
0.680000 0.160000 0
0.700000 0.160000 0
0.720000 0.160000 0
0.740000 0.160000 0
0.760000 0.160000 0
0.780000 0.160000 0
0.800000 0.160000 0
0.820000 0.160000 0
0.840000 0.160000 0
0.860000 0.160000 0
0.880000 0.160000 0
0.900000 0.160000 0
0.920000 0.160000 0
0.940000 0.160000 0
0.960000 0.160000 0
0.980000 0.160000 0
1.000000 0.160000 0
0.000000 0.180000 0
0.020000 0.180000 0
0.040000 0.180000 0
0.060000 0.180000 0
0.080000 0.180000 0
0.100000 0.180000 0
0.120000 0.180000 0
0.140000 0.180000 0
0.160000 0.180000 0
0.180000 0.180000 0
0.200000 0.180000 0
0.220000 0.180000 0
0.240000 0.180000 0
0.260000 0.180000 0
0.280000 0.180000 0
0.300000 0.180000 0
0.320000 0.180000 0
0.340000 0.180000 0
0.360000 0.180000 0
0.380000 0.180000 0
0.400000 0.180000 0
0.420000 0.180000 0
0.440000 0.180000 0
0.460000 0.180000 0
0.480000 0.180000 0
0.500000 0.180000 0
0.520000 0.180000 0
0.540000 0.180000 0
0.560000 0.180000 0
0.580000 0.180000 0
0.600000 0.180000 0
0.620000 0.180000 0
[...]
POINT_DATA 2601 

VECTORS velocity float
0.000000 0.000000 0
-0.000001 0.000000 0
-0.000001 0.000000 0
-0.000001 0.000000 0
0.000000 0.000000 0
0.000000 0.000000 0
0.000000 0.000000 0
0.000000 0.000000 0
0.000000 0.000000 0
0.000000 0.000000 0
0.000000 0.000000 0
-0.000000 0.000000 0
-0.000000 0.000000 0
-0.000000 0.000000 0
-0.000000 0.000000 0
-0.000000 0.000000 0
-0.000000 0.000000 0
0.000000 0.000000 0
-0.000000 0.000000 0
-0.000000 0.000000 0
-0.000000 0.000000 0
-0.000000 0.000000 0
-0.000000 0.000000 0
-0.000000 0.000000 0
-0.000000 0.000000 0
-0.000000 0.000000 0
-0.000000 0.000000 0
-0.000000 0.000000 0
-0.000000 0.000000 0
-0.000000 0.000000 0
-0.000000 0.000000 0
-0.000000 0.000000 0
-0.000000 0.000000 0
-0.000000 0.000000 0
-0.000000 0.000000 0
-0.000000 0.000000 0
-0.000000 0.000000 0
-0.000000 0.000000 0
0.000000 0.000000 0
0.000000 0.000000 0
0.000000 0.000000 0
0.000000 0.000000 0
0.000000 0.000000 0
0.000000 0.000000 0
0.000000 0.000000 0
0.000000 0.000000 0
0.000000 0.000000 0
0.000000 0.000000 0
0.000000 0.000000 0
-0.000000 0.000000 0
0.000000 0.000000 0
0.000000 -0.000001 0
0.000059 -0.000060 0
0.000080 -0.000023 0
-0.000015 0.000055 0
-0.000256 0.000143 0
-0.000644 0.000228 0
-0.001169 0.000301 0
-0.001811 0.000362 0
-0.002550 0.000411 0
-0.003367 0.000448 0
-0.004241 0.000474 0
-0.005156 0.000492 0
-0.006094 0.000501 0
-0.007041 0.000502 0
-0.007984 0.000497 0
-0.008908 0.000485 0
-0.009802 0.000466 0
-0.010653 0.000441 0
-0.011448 0.000409 0
-0.012175 0.000370 0
-0.012822 0.000325 0
-0.013376 0.000274 0
-0.013826 0.000215 0
-0.014161 0.000152 0
-0.014370 0.000082 0
-0.014446 0.000009 0
-0.014383 -0.000068 0
-0.014177 -0.000146 0
-0.013826 -0.000224 0
-0.013334 -0.000300 0
-0.012707 -0.000372 0
-0.011953 -0.000438 0
-0.011087 -0.000495 0
-0.010126 -0.000542 0
-0.009089 -0.000577 0
-0.008000 -0.000599 0
-0.006884 -0.000605 0
-0.005768 -0.000597 0
-0.004680 -0.000573 0
-0.003647 -0.000534 0
-0.002695 -0.000481 0
-0.001847 -0.000415 0
-0.001124 -0.000339 0
-0.000541 -0.000255 0
-0.000108 -0.000167 0
0.000171 -0.000080 0
0.000302 0.000001 0
0.000304 0.000066 0
0.000212 0.000100 0
0.000082 0.000082 0
0.000000 -0.000000 0
0.000000 -0.000001 0
0.000023 -0.000082 0
-0.000076 0.000074 0
-0.000386 0.000337 0
-0.000943 0.000630 0
-0.001750 0.000913 0
-0.002790 0.001167 0
-0.004035 0.001382 0
-0.005452 0.001556 0
-0.007006 0.001691 0
-0.008665 0.001789 0
-0.010395 0.001853 0
-0.012169 0.001885 0
-0.013957 0.001889 0
-0.015733 0.001867 0
-0.017473 0.001818 0
-0.019153 0.001745 0
-0.020747 0.001646 0
-0.022234 0.001522 0
-0.023589 0.001374 0
-0.024790 0.001201 0
-0.025814 0.001004 0
-0.026640 0.000785 0
-0.027249 0.000544 0
-0.027624 0.000286 0
-0.027750 0.000013 0
-0.027617 -0.000270 0
-0.027220 -0.000557 0
-0.026557 -0.000843 0
-0.025635 -0.001120 0
-0.024466 -0.001381 0
-0.023066 -0.001620 0
-0.021461 -0.001828 0
-0.019682 -0.001999 0
-0.017765 -0.002126 0
-0.015752 -0.002205 0
-0.013687 -0.002231 0
-0.011619 -0.002204 0
-0.009597 -0.002121 0
-0.007669 -0.001985 0
-0.005880 -0.001800 0
-0.004273 -0.001571 0
-0.002882 -0.001306 0
-0.001736 -0.001015 0
-0.000852 -0.000711 0
-0.000233 -0.000411 0
0.000129 -0.000134 0
0.000266 0.000090 0
0.000230 0.000223 0
0.000102 0.000212 0
0.000000 0.000000 0
0.000000 -0.000001 0
-0.000057 0.000016 0
-0.000349 0.000386 0
-0.000946 0.000923 0
-0.001874 0.001508 0
-0.003130 0.002075 0
-0.004691 0.002586 0
-0.006520 0.003024 0
-0.008577 0.003382 0
-0.010816 0.003661 0
-0.013194 0.003863 0
-0.015668 0.003996 0
-0.018197 0.004062 0
-0.020742 0.004067 0
-0.023267 0.004013 0
-0.025736 0.003904 0
-0.028114 0.003740 0
-0.030367 0.003522 0
-0.032464 0.003250 0
-0.034369 0.002926 0
-0.036053 0.002550 0
-0.037484 0.002124 0
-0.038633 0.001651 0
-0.039475 0.001135 0
-0.039986 0.000583 0
-0.040147 0.000002 0
-0.039947 -0.000598 0
-0.039378 -0.001206 0
-0.038441 -0.001808 0
-0.037144 -0.002392 0
-0.035504 -0.002941 0
-0.033545 -0.003442 0
-0.031302 -0.003879 0
-0.028817 -0.004238 0
-0.026139 -0.004508 0
-0.023325 -0.004676 0
-0.020434 -0.004738 0
-0.017533 -0.004687 0
-0.014686 -0.004523 0
-0.011958 -0.004251 0
-0.009411 -0.003877 0
-0.007101 -0.003413 0
-0.005076 -0.002875 0
-0.003373 -0.002286 0
-0.002016 -0.001670 0
-0.001011 -0.001061 0
-0.000347 -0.000498 0
0.000011 -0.000035 0
0.000122 0.000264 0
0.000076 0.000312 0
0.000000 0.000000 0
0.000000 -0.000000 0
-0.000153 0.000268 0
-0.000675 0.000964 0
-0.001599 0.001861 0
-0.002933 0.002814 0
-0.004660 0.003730 0
-0.006748 0.004557 0
-0.009154 0.005268 0
-0.011827 0.005852 0
-0.014715 0.006308 0
-0.017766 0.006640 0
-0.020928 0.006855 0
-0.024152 0.006959 0
-0.027389 0.006959 0
-0.030595 0.006860 0
-0.033724 0.006665 0
-0.036733 0.006376 0
-0.039580 0.005996 0
-0.042223 0.005524 0
-0.044622 0.004964 0
-0.046736 0.004316 0
-0.048529 0.003584 0
-0.049966 0.002775 0
-0.051014 0.001897 0
-0.051646 0.000959 0
-0.051842 -0.000025 0
-0.051584 -0.001039 0
-0.050867 -0.002063 0
-0.049692 -0.003077 0
-0.048069 -0.004057 0
-0.046019 -0.004980 0
-0.043573 -0.005821 0
-0.040772 -0.006556 0
-0.037667 -0.007161 0
-0.034318 -0.007618 0
-0.030793 -0.007909 0
-0.027166 -0.008023 0
-0.023513 -0.007952 0
-0.019915 -0.007696 0
-0.016451 -0.007260 0
-0.013194 -0.006657 0
-0.010214 -0.005906 0
-0.007570 -0.005034 0
-0.005306 -0.004076 0
-0.003454 -0.003074 0
-0.002026 -0.002079 0
-0.001010 -0.001155 0
-0.000375 -0.000378 0
-0.000059 0.000157 0
0.000025 0.000333 0
0.000000 0.000000 0
0.000000 0.000000 0
-0.000253 0.000691 0
-0.001017 0.001832 0
-0.002288 0.003180 0
-0.004046 0.004569 0
-0.006258 0.005890 0
-0.008878 0.007079 0
-0.011853 0.008102 0
-0.015126 0.008943 0
-0.018637 0.009600 0
-0.022327 0.010076 0
-0.026136 0.010381 0
-0.030008 0.010523 0
-0.033887 0.010510 0
-0.037722 0.010348 0
-0.041458 0.010042 0
-0.045047 0.009596 0
-0.048438 0.009012 0
-0.051582 0.008292 0
-0.054432 0.007440 0
-0.056942 0.006458 0
-0.059069 0.005354 0
-0.060772 0.004135 0
-0.062015 0.002816 0
-0.062767 0.001410 0
-0.063003 -0.000060 0
-0.062707 -0.001572 0
-0.061870 -0.003098 0
-0.060494 -0.004607 0
-0.058591 -0.006065 0
-0.056185 -0.007437 0
-0.053312 -0.008689 0
-0.050017 -0.009785 0
-0.046360 -0.010692 0
-0.042408 -0.011381 0
-0.038237 -0.011829 0
-0.033933 -0.012018 0
-0.029584 -0.011937 0
-0.025282 -0.011586 0
-0.021118 -0.010972 0
-0.017177 -0.010113 0
-0.013540 -0.009037 0
-0.010277 -0.007784 0
-0.007442 -0.006401 0
-0.005073 -0.004951 0
-0.003189 -0.003505 0
-0.001786 -0.002149 0
-0.000834 -0.000986 0
-0.000278 -0.000136 0
-0.000036 0.000252 0
0.000000 0.000000 0
0.000000 0.000000 0
-0.000351 0.001286 0
-0.001360 0.003000 0
-0.002983 0.004890 0
-0.005171 0.006783 0
-0.007871 0.008561 0
-0.011022 0.010152 0
-0.014560 0.011516 0
-0.018419 0.012636 0
-0.022532 0.013509 0
-0.026833 0.014139 0
-0.031257 0.014536 0
-0.035741 0.014711 0
-0.040225 0.014673 0
-0.044648 0.014431 0
-0.048953 0.013990 0
-0.053082 0.013356 0
-0.056981 0.012531 0
-0.060594 0.011519 0
-0.063869 0.010324 0
-0.066754 0.008953 0
-0.069200 0.007414 0
-0.071163 0.005721 0
-0.072601 0.003892 0
-0.073482 0.001947 0
-0.073776 -0.000085 0
-0.073466 -0.002172 0
-0.072542 -0.004276 0
-0.071005 -0.006356 0
-0.068867 -0.008366 0
-0.066155 -0.010260 0
-0.062907 -0.011989 0
-0.059172 -0.013508 0
-0.055014 -0.014771 0
-0.050508 -0.015741 0
-0.045739 -0.016384 0
-0.040799 -0.016676 0
-0.035787 -0.016603 0
-0.030806 -0.016163 0
-0.025957 -0.015366 0
-0.021339 -0.014234 0
-0.017044 -0.012806 0
-0.013150 -0.011133 0
-0.009725 -0.009280 0
-0.006816 -0.007326 0
-0.004449 -0.005366 0
-0.002629 -0.003511 0
-0.001333 -0.001886 0
-0.000514 -0.000640 0
-0.000101 0.000056 0
0.000000 0.000000 0
0.000000 0.000000 0
-0.000446 0.002052 0
-0.001695 0.004464 0
-0.003666 0.006991 0
-0.006281 0.009456 0
-0.009465 0.011740 0
-0.013141 0.013768 0
-0.017232 0.015499 0
-0.021663 0.016915 0
-0.026360 0.018014 0
-0.031250 0.018802 0
-0.036263 0.019290 0
-0.041331 0.019491 0
-0.046388 0.019416 0
-0.051370 0.019076 0
-0.056214 0.018477 0
-0.060858 0.017624 0
-0.065240 0.016524 0
-0.069303 0.015180 0
-0.072987 0.013599 0
-0.076237 0.011789 0
-0.079000 0.009762 0
-0.081227 0.007537 0
-0.082873 0.005135 0
-0.083901 0.002586 0
-0.084279 -0.000076 0
-0.083988 -0.002807 0
-0.083014 -0.005559 0
-0.081358 -0.008281 0
-0.079031 -0.010914 0
-0.076060 -0.013398 0
-0.072484 -0.015672 0
-0.068355 -0.017677 0
-0.063741 -0.019355 0
-0.058720 -0.020657 0
-0.053383 -0.021539 0
-0.047832 -0.021969 0
-0.042175 -0.021930 0
-0.036523 -0.021416 0
-0.030991 -0.020438 0
-0.025688 -0.019026 0
-0.020718 -0.017226 0
-0.016174 -0.015102 0
-0.012134 -0.012736 0
-0.008656 -0.010227 0
-0.005779 -0.007692 0
-0.003515 -0.005266 0
-0.001854 -0.003100 0
-0.000758 -0.001368 0
-0.000166 -0.000262 0
0.000000 0.000000 0
0.000000 0.000000 0
-0.000536 0.002981 0
-0.002017 0.006219 0
-0.004327 0.009476 0
-0.007361 0.012582 0
-0.011019 0.015420 0
-0.015209 0.017918 0
-0.019840 0.020038 0
-0.024828 0.021764 0
-0.030090 0.023095 0
-0.035549 0.024042 0
-0.041128 0.024618 0
-0.046757 0.024837 0
-0.052365 0.024713 0
-0.057882 0.024257 0
-0.063243 0.023477 0
-0.068382 0.022382 0
-0.073234 0.020976 0
-0.077735 0.019265 0
-0.081823 0.017258 0
-0.085440 0.014966 0
-0.088527 0.012404 0
-0.091032 0.009594 0
-0.092907 0.006566 0
-0.094110 0.003353 0
-0.094606 0.000002 0
-0.094372 -0.003438 0
-0.093392 -0.006906 0
-0.091663 -0.010338 0
-0.089195 -0.013663 0
-0.086013 -0.016807 0
-0.082155 -0.019694 0
-0.077674 -0.022251 0
-0.072640 -0.024407 0
-0.067134 -0.026098 0
-0.061254 -0.027271 0
-0.055106 -0.027884 0
-0.048809 -0.027912 0
-0.042483 -0.027347 0
-0.036255 -0.026201 0
-0.030248 -0.024507 0
-0.024579 -0.022320 0
-0.019355 -0.019717 0
-0.014667 -0.016798 0
-0.010588 -0.013681 0
-0.007170 -0.010508 0
-0.004438 -0.007436 0
-0.002391 -0.004644 0
-0.001006 -0.002328 0
-0.000231 -0.000702 0
0.000000 0.000000 0
0.000000 0.000000 0
-0.000622 0.004069 0
-0.002325 0.008255 0
-0.004962 0.012335 0
-0.008400 0.016148 0
-0.012518 0.019588 0
-0.017206 0.022589 0
-0.022361 0.025118 0
-0.027888 0.027165 0
-0.033697 0.028735 0
-0.039704 0.029840 0
-0.045830 0.030498 0
-0.051999 0.030727 0
-0.058137 0.030541 0
-0.064172 0.029955 0
-0.070035 0.028976 0
-0.075656 0.027615 0
-0.080969 0.025877 0
-0.085906 0.023770 0
-0.090402 0.021304 0
-0.094394 0.018492 0
-0.097821 0.015355 0
-0.100627 0.011916 0
-0.102759 0.008212 0
-0.104172 0.004285 0
-0.104827 0.000187 0
-0.104695 -0.004021 0
-0.103758 -0.008269 0
-0.102007 -0.012478 0
-0.099449 -0.016564 0
-0.096105 -0.020439 0
-0.092012 -0.024011 0
-0.087221 -0.027192 0
-0.081801 -0.029895 0
-0.075838 -0.032042 0
-0.069432 -0.033566 0
-0.062696 -0.034414 0
-0.055756 -0.034553 0
-0.048745 -0.033969 0
-0.041801 -0.032674 0
-0.035061 -0.030703 0
-0.028658 -0.028120 0
-0.022715 -0.025014 0
-0.017340 -0.021502 0
-0.012623 -0.017724 0
-0.008629 -0.013843 0
-0.005400 -0.010044 0
-0.002947 -0.006532 0
-0.001259 -0.003528 0
-0.000296 -0.001268 0
0.000000 0.000000 0
0.000000 0.000000 0
-0.000703 0.005306 0
-0.002617 0.010559 0
-0.005565 0.015551 0
-0.009391 0.020138 0
-0.013950 0.024226 0
-0.019118 0.027761 0
-0.024776 0.030720 0
-0.030822 0.033100 0
-0.037157 0.034912 0
-0.043693 0.036176 0
-0.050346 0.036913 0
-0.057036 0.037143 0
-0.063686 0.036886 0
-0.070224 0.036155 0
-0.076576 0.034962 0
-0.082673 0.033316 0
-0.088443 0.031225 0
-0.093819 0.028698 0
-0.098730 0.025746 0
-0.103113 0.022385 0
-0.106902 0.018637 0
-0.110037 0.014532 0
-0.112461 0.010111 0
-0.114126 0.005422 0
-0.114987 0.000525 0
-0.115009 -0.004507 0
-0.114168 -0.009595 0
-0.112451 -0.014647 0
-0.109858 -0.019564 0
-0.106407 -0.024244 0
-0.102127 -0.028579 0
-0.097070 -0.032462 0
-0.091301 -0.035790 0
-0.084908 -0.038468 0
-0.077992 -0.040413 0
-0.070673 -0.041560 0
-0.063085 -0.041863 0
-0.055371 -0.041302 0
-0.047684 -0.039885 0
-0.040176 -0.037650 0
-0.032998 -0.034666 0
-0.026291 -0.031035 0
-0.020183 -0.026890 0
-0.014782 -0.022392 0
-0.010173 -0.017731 0
-0.006412 -0.013118 0
-0.003529 -0.008784 0
-0.001522 -0.004979 0
-0.000363 -0.001961 0
0.000000 0.000000 0
0.000000 0.000000 0
-0.000779 0.006686 0
-0.002892 0.013117 0
-0.006135 0.019108 0
-0.010328 0.024533 0
-0.015307 0.029315 0
-0.020931 0.033415 0
-0.027071 0.036822 0
-0.033612 0.039546 0
-0.040451 0.041606 0
-0.047494 0.043029 0
-0.054652 0.043841 0
-0.061843 0.044067 0
-0.068990 0.043730 0
-0.076016 0.042845 0
-0.082849 0.041425 0
-0.089415 0.039482 0
-0.095643 0.037022 0
-0.101461 0.034057 0
-0.106801 0.030598 0
-0.111592 0.026664 0
-0.115769 0.022279 0
-0.119266 0.017477 0
-0.122024 0.012302 0
-0.123986 0.006810 0
-0.125104 0.001069 0
-0.125336 -0.004840 0
-0.124651 -0.010827 0
-0.123029 -0.016787 0
-0.120464 -0.022608 0
-0.116963 -0.028170 0
-0.112553 -0.033348 0
-0.107277 -0.038018 0
-0.101200 -0.042057 0
-0.094406 -0.045352 0
-0.086999 -0.047801 0
-0.079104 -0.049322 0
-0.070861 -0.049855 0
-0.062426 -0.049370 0
-0.053965 -0.047869 0
-0.045649 -0.045389 0
-0.037649 -0.042005 0
-0.030126 -0.037829 0
-0.023232 -0.033011 0
-0.017095 -0.027734 0
-0.011823 -0.022213 0
-0.007491 -0.016688 0
-0.004145 -0.011423 0
-0.001798 -0.006694 0
-0.000432 -0.002789 0
0.000000 0.000000 0
0.000000 0.000000 0
-0.000850 0.008199 0
-0.003149 0.015915 0
-0.006669 0.022986 0
-0.011206 0.029310 0
-0.016580 0.034830 0
-0.022635 0.039525 0
-0.029229 0.043401 0
-0.036240 0.046480 0
-0.043558 0.048794 0
-0.051082 0.050376 0
-0.058723 0.051262 0
-0.066396 0.051481 0
-0.074021 0.051059 0
-0.081522 0.050013 0
-0.088825 0.048360 0
-0.095855 0.046110 0
-0.102540 0.043272 0
-0.108809 0.039856 0
-0.114590 0.035877 0
-0.119811 0.031353 0
-0.124403 0.026311 0
-0.128297 0.020787 0
-0.131430 0.014830 0
-0.133739 0.008502 0
-0.135170 0.001875 0
-0.135673 -0.004960 0
-0.135208 -0.011901 0
-0.133748 -0.018834 0
-0.131276 -0.025631 0
-0.127792 -0.032155 0
-0.123312 -0.038265 0
-0.117874 -0.043814 0
-0.111535 -0.048661 0
-0.104378 -0.052669 0
-0.096504 -0.055715 0
-0.088043 -0.057698 0
-0.079143 -0.058541 0
-0.069970 -0.058198 0
-0.060705 -0.056662 0
-0.051539 -0.053966 0
-0.042665 -0.050189 0
-0.034269 -0.045452 0
-0.026528 -0.039921 0
-0.019597 -0.033801 0
-0.013607 -0.027335 0
-0.008656 -0.020795 0
-0.004809 -0.014477 0
-0.002095 -0.008692 0
-0.000506 -0.003759 0
0.000000 0.000000 0
0.000000 -0.000000 0
-0.000916 0.009835 0
-0.003387 0.018935 0
-0.007162 0.027164 0
-0.012019 0.034445 0
-0.017761 0.040744 0
-0.024217 0.046064 0
-0.031237 0.050428 0
-0.038688 0.053875 0
-0.046455 0.056448 0
-0.054435 0.058194 0
-0.062533 0.059155 0
-0.070665 0.059365 0
-0.078749 0.058856 0
-0.086709 0.057648 0
-0.094469 0.055758 0
-0.101957 0.053198 0
-0.109099 0.049977 0
-0.115824 0.046106 0
-0.122058 0.041600 0
-0.127728 0.036477 0
-0.132763 0.030765 0
-0.137090 0.024504 0
-0.140640 0.017743 0
-0.143347 0.010550 0
-0.145147 0.003003 0
-0.145984 -0.004801 0
-0.145809 -0.012751 0
-0.144582 -0.020719 0
-0.142277 -0.028564 0
-0.138881 -0.036134 0
-0.134402 -0.043266 0
-0.128865 -0.049795 0
-0.122322 -0.055554 0
-0.114846 -0.060383 0
-0.106540 -0.064135 0
-0.097533 -0.066683 0
-0.087978 -0.067928 0
-0.078054 -0.067808 0
-0.067959 -0.066299 0
-0.057902 -0.063429 0
-0.048101 -0.059275 0
-0.038771 -0.053966 0
-0.030117 -0.047683 0
-0.022325 -0.040655 0
-0.015554 -0.033154 0
-0.009928 -0.025486 0
-0.005535 -0.017984 0
-0.002419 -0.010997 0
-0.000586 -0.004884 0
0.000000 -0.000000 0
0.000000 -0.000000 0
-0.000976 0.011585 0
-0.003604 0.022161 0
-0.007613 0.031618 0
-0.012762 0.039909 0
-0.018841 0.047028 0
-0.025667 0.053000 0
-0.033078 0.057872 0
-0.040937 0.061699 0
-0.049122 0.064541 0
-0.057526 0.066455 0
-0.066053 0.067492 0
-0.074618 0.067697 0
-0.083137 0.067102 0
-0.091536 0.065733 0
-0.099739 0.063608 0
-0.107675 0.060740 0
-0.115270 0.057139 0
-0.122452 0.052815 0
-0.129149 0.047781 0
-0.135285 0.042058 0
-0.140786 0.035672 0
-0.145579 0.028665 0
-0.149588 0.021087 0
-0.152741 0.013009 0
-0.154969 0.004513 0
-0.156204 -0.004298 0
-0.156388 -0.013304 0
-0.155470 -0.022366 0
-0.153410 -0.031331 0
-0.150183 -0.040030 0
-0.145783 -0.048281 0
-0.140222 -0.055895 0
-0.133542 -0.062680 0
-0.125806 -0.068450 0
-0.117114 -0.073029 0
-0.107591 -0.076260 0
-0.097397 -0.078019 0
-0.086720 -0.078217 0
-0.075772 -0.076814 0
-0.064786 -0.073824 0
-0.054007 -0.069320 0
-0.043680 -0.063436 0
-0.034043 -0.056366 0
-0.025317 -0.048364 0
-0.017694 -0.039732 0
-0.011329 -0.030815 0
-0.006335 -0.021986 0
-0.002778 -0.013640 0
-0.000676 -0.006179 0
0.000000 -0.000000 0
0.000000 -0.000000 0
-0.001030 0.013439 0
-0.003798 0.025572 0
-0.008016 0.036323 0
-0.013429 0.045673 0
-0.019812 0.053648 0
-0.026971 0.060300 0
-0.034738 0.065698 0
-0.042968 0.069918 0
-0.051534 0.073037 0
-0.060328 0.075126 0
-0.069252 0.076246 0
-0.078218 0.076449 0
-0.087146 0.075774 0
-0.095960 0.074250 0
-0.104586 0.071897 0
-0.112954 0.068728 0
-0.120992 0.064755 0
-0.128629 0.059985 0
-0.135791 0.054432 0
-0.142404 0.048114 0
-0.148391 0.041059 0
-0.153677 0.033305 0
-0.158181 0.024906 0
-0.161827 0.015930 0
-0.164535 0.006465 0
-0.166232 -0.003382 0
-0.166846 -0.013485 0
-0.166315 -0.023697 0
-0.164583 -0.033851 0
-0.161612 -0.043761 0
-0.157378 -0.053227 0
-0.151880 -0.062036 0
-0.145144 -0.069970 0
-0.137222 -0.076811 0
-0.128204 -0.082351 0
-0.118213 -0.086400 0
-0.107408 -0.088800 0
-0.095987 -0.089433 0
-0.084177 -0.088233 0
-0.072233 -0.085194 0
-0.060428 -0.080382 0
-0.049041 -0.073929 0
-0.038349 -0.066045 0
-0.028611 -0.057004 0
-0.020059 -0.047142 0
-0.012882 -0.036845 0
-0.007224 -0.026535 0
-0.003177 -0.016656 0
-0.000776 -0.007662 0
0.000000 -0.000000 0
0.000000 0.000000 0
-0.001076 0.015383 0
-0.003967 0.029147 0
-0.008369 0.041249 0
-0.014013 0.051705 0
-0.020664 0.060570 0
-0.028119 0.067926 0
-0.036201 0.073869 0
-0.044761 0.078495 0
-0.053670 0.081901 0
-0.062814 0.084172 0
-0.072097 0.085382 0
-0.081429 0.085591 0
-0.090732 0.084843 0
-0.099930 0.083173 0
-0.108954 0.080603 0
-0.117732 0.077146 0
-0.126196 0.072814 0
-0.134276 0.067613 0
-0.141899 0.061556 0
-0.148991 0.054658 0
-0.155476 0.046946 0
-0.161274 0.038455 0
-0.166303 0.029237 0
-0.170479 0.019362 0
-0.173718 0.008918 0
-0.175935 -0.001987 0
-0.177048 -0.013221 0
-0.176981 -0.024629 0
-0.175665 -0.036034 0
-0.173041 -0.047235 0
-0.169071 -0.058012 0
-0.163733 -0.068129 0
-0.157036 -0.077339 0
-0.149018 -0.085390 0
-0.139754 -0.092038 0
-0.129359 -0.097056 0
-0.117993 -0.100244 0
-0.105855 -0.101448 0
-0.093188 -0.100568 0
-0.080268 -0.097574 0
-0.067397 -0.092512 0
-0.054893 -0.085514 0
-0.043073 -0.076796 0
-0.032243 -0.066655 0
-0.022677 -0.055462 0
-0.014608 -0.043649 0
-0.008218 -0.031690 0
-0.003626 -0.020088 0
-0.000889 -0.009356 0
0.000000 -0.000000 0
0.000000 0.000000 0
-0.001116 0.017406 0
-0.004110 0.032865 0
-0.008668 0.046368 0
-0.014509 0.057968 0
-0.021389 0.067754 0
-0.029098 0.075837 0
-0.037452 0.082341 0
-0.046299 0.087387 0
-0.055505 0.091090 0
-0.064956 0.093553 0
-0.074554 0.094861 0
-0.084211 0.095084 0
-0.093849 0.094275 0
-0.103395 0.092472 0
-0.112780 0.089698 0
-0.121939 0.085971 0
-0.130803 0.081298 0
-0.139305 0.075688 0
-0.147374 0.069148 0
-0.154938 0.061692 0
-0.161920 0.053342 0
-0.168239 0.044132 0
-0.173811 0.034111 0
-0.178548 0.023345 0
-0.182357 0.011921 0
-0.185147 -0.000051 0
-0.186824 -0.012439 0
-0.187297 -0.025081 0
-0.186481 -0.037791 0
-0.184302 -0.050355 0
-0.180699 -0.062535 0
-0.175630 -0.074071 0
-0.169083 -0.084685 0
-0.161076 -0.094093 0
-0.151666 -0.102009 0
-0.140957 -0.108161 0
-0.129099 -0.112304 0
-0.116295 -0.114237 0
-0.102796 -0.113820 0
-0.088899 -0.110986 0
-0.074936 -0.105757 0
-0.061265 -0.098253 0
-0.048249 -0.088695 0
-0.036244 -0.077401 0
-0.025577 -0.064777 0
-0.016530 -0.051304 0
-0.009329 -0.037518 0
-0.004130 -0.023985 0
-0.001017 -0.011288 0
0.000000 -0.000000 0
0.000000 0.000000 0
-0.001147 0.019494 0
-0.004225 0.036700 0
-0.008910 0.051648 0
-0.014912 0.064426 0
-0.021980 0.075159 0
-0.029897 0.083989 0
-0.038478 0.091070 0
-0.047563 0.096548 0
-0.057017 0.100558 0
-0.066726 0.103221 0
-0.076590 0.104637 0
-0.086523 0.104885 0
-0.096449 0.104027 0
-0.106298 0.102105 0
-0.116003 0.099147 0