# vtk DataFile Version 2.0
generated by CFD-lab course output (written by Tobias Neckel) 
ASCII

DATASET STRUCTURED_GRID
DIMENSIONS  51 51 1 
POINTS 2601 float

0.000000 0.000000 0
0.020000 0.000000 0
0.040000 0.000000 0
0.060000 0.000000 0
0.080000 0.000000 0
0.100000 0.000000 0
0.120000 0.000000 0
0.140000 0.000000 0
0.160000 0.000000 0
0.180000 0.000000 0
0.200000 0.000000 0
0.220000 0.000000 0
0.240000 0.000000 0
0.260000 0.000000 0
0.280000 0.000000 0
0.300000 0.000000 0
0.320000 0.000000 0
0.340000 0.000000 0
0.360000 0.000000 0
0.380000 0.000000 0
0.400000 0.000000 0
0.420000 0.000000 0
0.440000 0.000000 0
0.460000 0.000000 0
0.480000 0.000000 0
0.500000 0.000000 0
0.520000 0.000000 0
0.540000 0.000000 0
0.560000 0.000000 0
0.580000 0.000000 0
0.600000 0.000000 0
0.620000 0.000000 0
0.640000 0.000000 0
0.660000 0.000000 0
0.680000 0.000000 0
0.700000 0.000000 0
0.720000 0.000000 0
0.740000 0.000000 0
0.760000 0.000000 0
0.780000 0.000000 0
0.800000 0.000000 0
0.820000 0.000000 0
0.840000 0.000000 0
0.860000 0.000000 0
0.880000 0.000000 0
0.900000 0.000000 0
0.920000 0.000000 0
0.940000 0.000000 0
0.960000 0.000000 0
0.980000 0.000000 0
1.000000 0.000000 0
0.000000 0.020000 0
0.020000 0.020000 0
0.040000 0.020000 0
0.060000 0.020000 0
0.080000 0.020000 0
0.100000 0.020000 0
0.120000 0.020000 0
0.140000 0.020000 0
0.160000 0.020000 0
0.180000 0.020000 0
0.200000 0.020000 0
0.220000 0.020000 0
0.240000 0.020000 0
0.260000 0.020000 0
0.280000 0.020000 0
0.300000 0.020000 0
0.320000 0.020000 0
0.340000 0.020000 0
0.360000 0.020000 0
0.380000 0.020000 0
0.400000 0.020000 0
0.420000 0.020000 0
0.440000 0.020000 0
0.460000 0.020000 0
0.480000 0.020000 0
0.500000 0.020000 0
0.520000 0.020000 0
0.540000 0.020000 0
0.560000 0.020000 0
0.580000 0.020000 0
0.600000 0.020000 0
0.620000 0.020000 0
0.640000 0.020000 0
0.660000 0.020000 0
0.680000 0.020000 0
0.700000 0.020000 0
0.720000 0.020000 0
0.740000 0.020000 0
0.760000 0.020000 0
0.780000 0.020000 0
0.800000 0.020000 0
0.820000 0.020000 0
0.840000 0.020000 0
0.860000 0.020000 0
0.880000 0.020000 0
0.900000 0.020000 0
0.920000 0.020000 0
0.940000 0.020000 0
0.960000 0.020000 0
0.980000 0.020000 0
1.000000 0.020000 0
0.000000 0.040000 0
0.020000 0.040000 0
0.040000 0.040000 0
0.060000 0.040000 0
0.080000 0.040000 0
0.100000 0.040000 0
0.120000 0.040000 0
0.140000 0.040000 0
0.160000 0.040000 0
0.180000 0.040000 0
0.200000 0.040000 0
0.220000 0.040000 0
0.240000 0.040000 0
0.260000 0.040000 0
0.280000 0.040000 0
0.300000 0.040000 0
0.320000 0.040000 0
0.340000 0.040000 0
0.360000 0.040000 0
0.380000 0.040000 0
0.400000 0.040000 0
0.420000 0.040000 0
0.440000 0.040000 0
0.460000 0.040000 0
0.480000 0.040000 0
0.500000 0.040000 0
0.520000 0.040000 0
0.540000 0.040000 0
0.560000 0.040000 0
0.580000 0.040000 0
0.600000 0.040000 0
0.620000 0.040000 0
0.640000 0.040000 0
0.660000 0.040000 0
0.680000 0.040000 0
0.700000 0.040000 0
0.720000 0.040000 0
0.740000 0.040000 0
0.760000 0.040000 0
0.780000 0.040000 0
0.800000 0.040000 0
0.820000 0.040000 0
0.840000 0.040000 0
0.860000 0.040000 0
0.880000 0.040000 0
0.900000 0.040000 0
0.920000 0.040000 0
0.940000 0.040000 0
0.960000 0.040000 0
0.980000 0.040000 0
1.000000 0.040000 0
0.000000 0.060000 0
0.020000 0.060000 0
0.040000 0.060000 0
0.060000 0.060000 0
0.080000 0.060000 0
0.100000 0.060000 0
0.120000 0.060000 0
0.140000 0.060000 0
0.160000 0.060000 0
0.180000 0.060000 0
0.200000 0.060000 0
0.220000 0.060000 0
0.240000 0.060000 0
0.260000 0.060000 0
0.280000 0.060000 0
0.300000 0.060000 0
0.320000 0.060000 0
0.340000 0.060000 0
0.360000 0.060000 0
0.380000 0.060000 0
0.400000 0.060000 0
0.420000 0.060000 0
0.440000 0.060000 0
0.460000 0.060000 0
0.480000 0.060000 0
0.500000 0.060000 0
0.520000 0.060000 0
0.540000 0.060000 0
0.560000 0.060000 0
0.580000 0.060000 0
0.600000 0.060000 0
0.620000 0.060000 0
0.640000 0.060000 0
0.660000 0.060000 0
0.680000 0.060000 0
0.700000 0.060000 0
0.720000 0.060000 0
0.740000 0.060000 0
0.760000 0.060000 0
0.780000 0.060000 0
0.800000 0.060000 0
0.820000 0.060000 0
0.840000 0.060000 0
0.860000 0.060000 0
0.880000 0.060000 0
0.900000 0.060000 0
0.920000 0.060000 0
0.940000 0.060000 0
0.960000 0.060000 0
0.980000 0.060000 0
1.000000 0.060000 0
0.000000 0.080000 0
0.020000 0.080000 0
0.040000 0.080000 0
0.060000 0.080000 0
0.080000 0.080000 0
0.100000 0.080000 0
0.120000 0.080000 0
0.140000 0.080000 0
0.160000 0.080000 0
0.180000 0.080000 0
0.200000 0.080000 0
0.220000 0.080000 0
0.240000 0.080000 0
0.260000 0.080000 0
0.280000 0.080000 0
0.300000 0.080000 0
0.320000 0.080000 0
0.340000 0.080000 0
0.360000 0.080000 0
0.380000 0.080000 0
0.400000 0.080000 0
0.420000 0.080000 0
0.440000 0.080000 0
0.460000 0.080000 0
0.480000 0.080000 0
0.500000 0.080000 0
0.520000 0.080000 0
0.540000 0.080000 0
0.560000 0.080000 0
0.580000 0.080000 0
0.600000 0.080000 0
0.620000 0.080000 0
0.640000 0.080000 0
0.660000 0.080000 0
0.680000 0.080000 0
0.700000 0.080000 0
0.720000 0.080000 0
0.740000 0.080000 0
0.760000 0.080000 0
0.780000 0.080000 0
0.800000 0.080000 0
0.820000 0.080000 0
0.840000 0.080000 0
0.860000 0.080000 0
0.880000 0.080000 0
0.900000 0.080000 0
0.920000 0.080000 0
0.940000 0.080000 0
0.960000 0.080000 0
0.980000 0.080000 0
1.000000 0.080000 0
0.000000 0.100000 0
0.020000 0.100000 0
0.040000 0.100000 0
0.060000 0.100000 0
0.080000 0.100000 0
0.100000 0.100000 0
0.120000 0.100000 0
0.140000 0.100000 0
0.160000 0.100000 0
0.180000 0.100000 0
0.200000 0.100000 0
0.220000 0.100000 0
0.240000 0.100000 0
0.260000 0.100000 0
0.280000 0.100000 0
0.300000 0.100000 0
0.320000 0.100000 0
0.340000 0.100000 0
0.360000 0.100000 0
0.380000 0.100000 0
0.400000 0.100000 0
0.420000 0.100000 0
0.440000 0.100000 0
0.460000 0.100000 0
0.480000 0.100000 0
0.500000 0.100000 0
0.520000 0.100000 0
0.540000 0.100000 0
0.560000 0.100000 0
0.580000 0.100000 0
0.600000 0.100000 0
0.620000 0.100000 0
0.640000 0.100000 0
0.660000 0.100000 0
0.680000 0.100000 0
0.700000 0.100000 0
0.720000 0.100000 0
0.740000 0.100000 0
0.760000 0.100000 0
0.780000 0.100000 0
0.800000 0.100000 0
0.820000 0.100000 0
0.840000 0.100000 0
0.860000 0.100000 0
0.880000 0.100000 0
0.900000 0.100000 0
0.920000 0.100000 0
0.940000 0.100000 0
0.960000 0.100000 0
0.980000 0.100000 0
1.000000 0.100000 0
0.000000 0.120000 0
0.020000 0.120000 0
0.040000 0.120000 0
0.060000 0.120000 0
0.080000 0.120000 0
0.100000 0.120000 0
0.120000 0.120000 0
0.140000 0.120000 0
0.160000 0.120000 0
0.180000 0.120000 0
0.200000 0.120000 0
0.220000 0.120000 0
0.240000 0.120000 0
0.260000 0.120000 0
0.280000 0.120000 0
0.300000 0.120000 0
0.320000 0.120000 0
0.340000 0.120000 0
0.360000 0.120000 0
0.380000 0.120000 0
0.400000 0.120000 0
0.420000 0.120000 0
0.440000 0.120000 0
0.460000 0.120000 0
0.480000 0.120000 0
0.500000 0.120000 0
0.520000 0.120000 0
0.540000 0.120000 0
0.560000 0.120000 0
0.580000 0.120000 0
0.600000 0.120000 0
0.620000 0.120000 0
0.640000 0.120000 0
0.660000 0.120000 0
0.680000 0.120000 0
0.700000 0.120000 0
0.720000 0.120000 0
0.740000 0.120000 0
0.760000 0.120000 0
0.780000 0.120000 0
0.800000 0.120000 0
0.820000 0.120000 0
0.840000 0.120000 0
0.860000 0.120000 0
0.880000 0.120000 0
0.900000 0.120000 0
0.920000 0.120000 0
0.940000 0.120000 0
0.960000 0.120000 0
0.980000 0.120000 0
1.000000 0.120000 0
0.000000 0.140000 0
0.020000 0.140000 0
0.040000 0.140000 0
0.060000 0.140000 0
0.080000 0.140000 0
0.100000 0.140000 0
0.120000 0.140000 0
0.140000 0.140000 0
0.160000 0.140000 0
0.180000 0.140000 0
0.200000 0.140000 0
0.220000 0.140000 0
0.240000 0.140000 0
0.260000 0.140000 0
0.280000 0.140000 0
0.300000 0.140000 0
0.320000 0.140000 0
0.340000 0.140000 0
0.360000 0.140000 0
0.380000 0.140000 0
0.400000 0.140000 0
0.420000 0.140000 0
0.440000 0.140000 0
0.460000 0.140000 0
0.480000 0.140000 0
0.500000 0.140000 0
0.520000 0.140000 0
0.540000 0.140000 0
0.560000 0.140000 0
0.580000 0.140000 0
0.600000 0.140000 0
0.620000 0.140000 0
0.640000 0.140000 0
0.660000 0.140000 0
0.680000 0.140000 0
0.700000 0.140000 0
0.720000 0.140000 0
0.740000 0.140000 0
0.760000 0.140000 0
0.780000 0.140000 0
0.800000 0.140000 0
0.820000 0.140000 0
0.840000 0.140000 0
0.860000 0.140000 0
0.880000 0.140000 0
0.900000 0.140000 0
0.920000 0.140000 0
0.940000 0.140000 0
0.960000 0.140000 0
0.980000 0.140000 0
1.000000 0.140000 0
0.000000 0.160000 0
0.020000 0.160000 0
0.040000 0.160000 0
0.060000 0.160000 0
0.080000 0.160000 0
0.100000 0.160000 0
0.120000 0.160000 0
0.140000 0.160000 0
0.160000 0.160000 0
0.180000 0.160000 0
0.200000 0.160000 0
0.220000 0.160000 0
0.240000 0.160000 0
0.260000 0.160000 0
0.280000 0.160000 0
0.300000 0.160000 0
0.320000 0.160000 0
0.340000 0.160000 0
0.360000 0.160000 0
0.380000 0.160000 0
0.400000 0.160000 0
0.420000 0.160000 0
0.440000 0.160000 0
0.460000 0.160000 0
0.480000 0.160000 0
0.500000 0.160000 0
0.520000 0.160000 0
0.540000 0.160000 0
0.560000 0.160000 0
0.580000 0.160000 0
0.600000 0.160000 0
0.620000 0.160000 0
0.640000 0.160000 0
0.660000 0.160000 0
0.680000 0.160000 0
0.700000 0.160000 0
0.720000 0.160000 0
0.740000 0.160000 0
0.760000 0.160000 0
0.780000 0.160000 0
0.800000 0.160000 0
0.820000 0.160000 0
0.840000 0.160000 0
0.860000 0.160000 0
0.880000 0.160000 0
0.900000 0.160000 0
0.920000 0.160000 0
0.940000 0.160000 0
0.960000 0.160000 0
0.980000 0.160000 0
1.000000 0.160000 0
0.000000 0.180000 0
0.020000 0.180000 0
0.040000 0.180000 0
0.060000 0.180000 0
0.080000 0.180000 0
0.100000 0.180000 0
0.120000 0.180000 0
0.140000 0.180000 0
0.160000 0.180000 0
0.180000 0.180000 0
0.200000 0.180000 0
0.220000 0.180000 0
0.240000 0.180000 0
0.260000 0.180000 0
0.280000 0.180000 0
0.300000 0.180000 0
0.320000 0.180000 0
0.340000 0.180000 0
0.360000 0.180000 0
0.380000 0.180000 0
0.400000 0.180000 0
0.420000 0.180000 0
0.440000 0.180000 0
0.460000 0.180000 0
0.480000 0.180000 0
0.500000 0.180000 0
0.520000 0.180000 0
0.540000 0.180000 0
0.560000 0.180000 0
0.580000 0.180000 0
0.600000 0.180000 0
0.620000 0.180000 0
[...]
POINT_DATA 2601 

VECTORS velocity float
0.000000 0.000000 0
0.000001 0.000000 0
0.000001 0.000000 0
-0.000000 0.000000 0
-0.000000 0.000000 0
-0.000000 0.000000 0
-0.000000 0.000000 0
0.000000 0.000000 0
0.000000 0.000000 0
0.000000 0.000000 0
-0.000000 0.000000 0
-0.000000 0.000000 0
-0.000000 0.000000 0
0.000000 0.000000 0
0.000000 0.000000 0
0.000000 0.000000 0
0.000000 0.000000 0
-0.000000 0.000000 0
-0.000000 0.000000 0
-0.000000 0.000000 0
-0.000000 0.000000 0
-0.000000 0.000000 0
-0.000000 0.000000 0
-0.000000 0.000000 0
-0.000000 0.000000 0
-0.000000 0.000000 0
-0.000000 0.000000 0
-0.000000 0.000000 0
-0.000000 0.000000 0
-0.000000 0.000000 0
-0.000000 0.000000 0
-0.000000 0.000000 0
-0.000000 0.000000 0
-0.000000 0.000000 0
-0.000000 0.000000 0
-0.000000 0.000000 0
-0.000000 0.000000 0
-0.000000 0.000000 0
-0.000000 0.000000 0
0.000000 0.000000 0
0.000000 0.000000 0
0.000000 0.000000 0
0.000000 0.000000 0
0.000000 0.000000 0
0.000000 0.000000 0
0.000000 0.000000 0
0.000000 0.000000 0
0.000000 0.000000 0
0.000000 0.000000 0
0.000000 0.000000 0
0.000000 0.000000 0
0.000000 0.000001 0
0.000061 -0.000058 0
0.000081 -0.000022 0
-0.000015 0.000055 0
-0.000256 0.000143 0
-0.000644 0.000227 0
-0.001168 0.000300 0
-0.001810 0.000361 0
-0.002548 0.000410 0
-0.003364 0.000447 0
-0.004238 0.000473 0
-0.005151 0.000491 0
-0.006088 0.000500 0
-0.007034 0.000502 0
-0.007975 0.000496 0
-0.008898 0.000484 0
-0.009791 0.000465 0
-0.010641 0.000440 0
-0.011435 0.000408 0
-0.012162 0.000370 0
-0.012808 0.000325 0
-0.013362 0.000273 0
-0.013811 0.000215 0
-0.014145 0.000151 0
-0.014355 0.000082 0
-0.014431 0.000009 0
-0.014368 -0.000068 0
-0.014162 -0.000146 0
-0.013813 -0.000224 0
-0.013321 -0.000299 0
-0.012695 -0.000371 0
-0.011942 -0.000437 0
-0.011077 -0.000494 0
-0.010117 -0.000541 0
-0.009081 -0.000576 0
-0.007994 -0.000598 0
-0.006879 -0.000605 0
-0.005765 -0.000596 0
-0.004678 -0.000572 0
-0.003646 -0.000533 0
-0.002694 -0.000480 0
-0.001847 -0.000415 0
-0.001124 -0.000339 0
-0.000542 -0.000255 0
-0.000109 -0.000167 0
0.000170 -0.000080 0
0.000301 0.000001 0
0.000304 0.000066 0
0.000212 0.000099 0
0.000082 0.000082 0
0.000000 -0.000000 0
0.000000 0.000001 0
0.000024 -0.000080 0
-0.000075 0.000075 0
-0.000386 0.000336 0
-0.000942 0.000629 0
-0.001749 0.000912 0
-0.002788 0.001165 0
-0.004031 0.001380 0
-0.005447 0.001554 0
-0.006999 0.001689 0
-0.008656 0.001786 0
-0.010384 0.001850 0
-0.012155 0.001883 0
-0.013941 0.001888 0
-0.015716 0.001865 0
-0.017454 0.001816 0
-0.019131 0.001742 0
-0.020724 0.001644 0
-0.022209 0.001520 0
-0.023563 0.001372 0
-0.024762 0.001200 0
-0.025785 0.001003 0
-0.026611 0.000784 0
-0.027219 0.000544 0
-0.027594 0.000286 0
-0.027720 0.000013 0
-0.027588 -0.000269 0
-0.027191 -0.000556 0
-0.026530 -0.000841 0
-0.025610 -0.001118 0
-0.024442 -0.001379 0
-0.023044 -0.001617 0
-0.021441 -0.001825 0
-0.019664 -0.001996 0
-0.017750 -0.002123 0
-0.015739 -0.002202 0
-0.013677 -0.002229 0
-0.011611 -0.002201 0
-0.009591 -0.002119 0
-0.007665 -0.001984 0
-0.005878 -0.001799 0
-0.004272 -0.001570 0
-0.002883 -0.001306 0
-0.001737 -0.001015 0
-0.000853 -0.000711 0
-0.000235 -0.000411 0
0.000128 -0.000134 0
0.000265 0.000090 0
0.000229 0.000222 0
0.000102 0.000211 0
0.000000 -0.000000 0
0.000000 0.000000 0
-0.000057 0.000017 0
-0.000349 0.000386 0
-0.000946 0.000922 0
-0.001873 0.001506 0
-0.003127 0.002072 0
-0.004686 0.002583 0
-0.006514 0.003020 0
-0.008568 0.003378 0
-0.010805 0.003656 0
-0.013180 0.003859 0
-0.015650 0.003991 0
-0.018176 0.004057 0
-0.020718 0.004062 0
-0.023240 0.004009 0
-0.025706 0.003899 0
-0.028081 0.003735 0
-0.030332 0.003518 0
-0.032426 0.003247 0
-0.034330 0.002923 0
-0.036012 0.002547 0
-0.037441 0.002122 0
-0.038590 0.001649 0
-0.039430 0.001134 0
-0.039941 0.000583 0
-0.040103 0.000003 0
-0.039904 -0.000596 0
-0.039336 -0.001203 0
-0.038401 -0.001805 0
-0.037106 -0.002388 0
-0.035468 -0.002937 0
-0.033512 -0.003437 0
-0.031272 -0.003874 0
-0.028790 -0.004233 0
-0.026116 -0.004502 0
-0.023305 -0.004671 0
-0.020418 -0.004732 0
-0.017520 -0.004682 0
-0.014676 -0.004519 0
-0.011951 -0.004247 0
-0.009406 -0.003873 0
-0.007099 -0.003410 0
-0.005075 -0.002874 0
-0.003373 -0.002285 0
-0.002016 -0.001670 0
-0.001012 -0.001061 0
-0.000348 -0.000499 0
0.000010 -0.000036 0
0.000121 0.000263 0
0.000076 0.000311 0
0.000000 0.000000 0
0.000000 -0.000000 0
-0.000153 0.000269 0
-0.000675 0.000964 0
-0.001598 0.001860 0
-0.002930 0.002811 0
-0.004655 0.003726 0
-0.006741 0.004552 0
-0.009143 0.005262 0
-0.011813 0.005845 0
-0.014698 0.006301 0
-0.017745 0.006633 0
-0.020903 0.006847 0
-0.024123 0.006951 0
-0.027357 0.006951 0
-0.030559 0.006852 0
-0.033684 0.006657 0
-0.036689 0.006369 0
-0.039533 0.005989 0
-0.042173 0.005518 0
-0.044569 0.004958 0
-0.046682 0.004311 0
-0.048473 0.003581 0
-0.049908 0.002773 0
-0.050956 0.001895 0
-0.051588 0.000959 0
-0.051784 -0.000024 0
-0.051528 -0.001036 0
-0.050812 -0.002059 0
-0.049639 -0.003072 0
-0.048019 -0.004051 0
-0.045972 -0.004973 0
-0.043529 -0.005813 0
-0.040732 -0.006547 0
-0.037631 -0.007152 0
-0.034287 -0.007609 0
-0.030766 -0.007900 0
-0.027143 -0.008014 0
-0.023494 -0.007944 0
-0.019900 -0.007688 0
-0.016439 -0.007253 0
-0.013186 -0.006651 0
-0.010209 -0.005901 0
-0.007567 -0.005031 0
-0.005305 -0.004074 0
-0.003454 -0.003073 0
-0.002026 -0.002079 0
-0.001011 -0.001156 0
-0.000376 -0.000379 0
-0.000060 0.000156 0
0.000025 0.000333 0
0.000000 0.000000 0
0.000000 -0.000000 0
-0.000254 0.000690 0
-0.001017 0.001831 0
-0.002286 0.003177 0
-0.004042 0.004564 0
-0.006251 0.005883 0
-0.008867 0.007071 0
-0.011839 0.008093 0
-0.015108 0.008933 0
-0.018614 0.009588 0
-0.022299 0.010065 0
-0.026103 0.010369 0
-0.029971 0.010511 0
-0.033846 0.010497 0
-0.037676 0.010335 0
-0.041408 0.010030 0
-0.044992 0.009585 0
-0.048379 0.009002 0
-0.051520 0.008283 0
-0.054367 0.007432 0
-0.056875 0.006451 0
-0.059000 0.005348 0
-0.060701 0.004132 0
-0.061944 0.002814 0
-0.062695 0.001411 0
-0.062932 -0.000058 0
-0.062637 -0.001568 0
-0.061802 -0.003092 0
-0.060429 -0.004599 0
-0.058529 -0.006055 0
-0.056127 -0.007427 0
-0.053258 -0.008677 0
-0.049968 -0.009772 0
-0.046315 -0.010678 0
-0.042368 -0.011367 0
-0.038203 -0.011815 0
-0.033904 -0.012004 0
-0.029560 -0.011924 0
-0.025262 -0.011574 0
-0.021102 -0.010961 0
-0.017165 -0.010104 0
-0.013532 -0.009030 0
-0.010271 -0.007778 0
-0.007438 -0.006397 0
-0.005071 -0.004948 0
-0.003189 -0.003504 0
-0.001786 -0.002149 0
-0.000834 -0.000987 0
-0.000278 -0.000138 0
-0.000036 0.000251 0
0.000000 0.000000 0
0.000000 -0.000000 0
-0.000352 0.001285 0
-0.001359 0.002997 0
-0.002980 0.004885 0
-0.005165 0.006775 0
-0.007861 0.008551 0
-0.011008 0.010140 0
-0.014541 0.011502 0
-0.018395 0.012621 0
-0.022503 0.013493 0
-0.026799 0.014122 0
-0.031217 0.014519 0
-0.035696 0.014693 0
-0.040175 0.014656 0
-0.044592 0.014414 0
-0.048892 0.013974 0
-0.053017 0.013340 0
-0.056912 0.012516 0
-0.060521 0.011506 0
-0.063792 0.010313 0
-0.066674 0.008944 0
-0.069118 0.007408 0
-0.071079 0.005717 0
-0.072517 0.003890 0
-0.073398 0.001948 0
-0.073693 -0.000082 0
-0.073385 -0.002166 0
-0.072463 -0.004268 0
-0.070928 -0.006345 0
-0.068795 -0.008353 0
-0.066087 -0.010244 0
-0.062843 -0.011972 0
-0.059113 -0.013490 0
-0.054961 -0.014752 0
-0.050461 -0.015722 0
-0.045697 -0.016364 0
-0.040763 -0.016657 0
-0.035756 -0.016585 0
-0.030781 -0.016146 0
-0.025937 -0.015350 0
-0.021323 -0.014221 0
-0.017032 -0.012795 0
-0.013142 -0.011124 0
-0.009720 -0.009273 0
-0.006813 -0.007322 0
-0.004448 -0.005364 0
-0.002628 -0.003510 0
-0.001332 -0.001887 0
-0.000514 -0.000642 0
-0.000101 0.000054 0
0.000000 0.000000 0
0.000000 -0.000000 0
-0.000446 0.002050 0
-0.001693 0.004459 0
-0.003661 0.006983 0
-0.006274 0.009445 0
-0.009453 0.011726 0
-0.013124 0.013752 0
-0.017210 0.015480 0
-0.021635 0.016895 0
-0.026325 0.017992 0
-0.031209 0.018779 0
-0.036217 0.019266 0
-0.041279 0.019467 0
-0.046330 0.019393 0
-0.051306 0.019053 0
-0.056144 0.018455 0
-0.060782 0.017604 0
-0.065160 0.016505 0
-0.069218 0.015164 0
-0.072899 0.013585 0
-0.076146 0.011777 0
-0.078906 0.009754 0
-0.081132 0.007531 0
-0.082777 0.005133 0
-0.083805 0.002587 0
-0.084185 -0.000071 0
-0.083895 -0.002799 0
-0.082923 -0.005548 0
-0.081270 -0.008267 0
-0.078948 -0.010897 0
-0.075982 -0.013378 0
-0.072410 -0.015651 0
-0.068287 -0.017653 0
-0.063678 -0.019331 0
-0.058664 -0.020631 0
-0.053333 -0.021513 0
-0.047789 -0.021945 0
-0.042138 -0.021906 0
-0.036492 -0.021394 0
-0.030965 -0.020418 0
-0.025668 -0.019009 0
-0.020703 -0.017211 0
-0.016163 -0.015090 0
-0.012126 -0.012727 0
-0.008651 -0.010220 0
-0.005775 -0.007688 0
-0.003513 -0.005264 0
-0.001853 -0.003101 0
-0.000757 -0.001369 0
-0.000166 -0.000263 0
0.000000 0.000000 0
0.000000 0.000000 0
-0.000536 0.002978 0
-0.002015 0.006212 0
-0.004322 0.009465 0
-0.007351 0.012567 0
-0.011005 0.015401 0
-0.015188 0.017897 0
-0.019813 0.020014 0
-0.024795 0.021737 0
-0.030050 0.023067 0
-0.035502 0.024013 0
-0.041075 0.024588 0
-0.046697 0.024807 0
-0.052298 0.024683 0
-0.057809 0.024228 0
-0.063164 0.023450 0
-0.068297 0.022356 0
-0.073143 0.020952 0
-0.077640 0.019244 0
-0.081725 0.017240 0
-0.085338 0.014952 0
-0.088423 0.012393 0
-0.090926 0.009588 0
-0.092800 0.006563 0
-0.094003 0.003355 0
-0.094501 0.000008 0
-0.094268 -0.003428 0
-0.093291 -0.006892 0
-0.091565 -0.010320 0
-0.089102 -0.013641 0
-0.085925 -0.016782 0
-0.082072 -0.019667 0
-0.077597 -0.022222 0
-0.072569 -0.024376 0
-0.067070 -0.026066 0
-0.061196 -0.027239 0
-0.055056 -0.027853 0
-0.048765 -0.027882 0
-0.042446 -0.027319 0
-0.036225 -0.026175 0
-0.030223 -0.024484 0
-0.024560 -0.022300 0
-0.019340 -0.019701 0
-0.014656 -0.016785 0
-0.010581 -0.013672 0
-0.007165 -0.010502 0
-0.004435 -0.007433 0
-0.002390 -0.004643 0
-0.001005 -0.002328 0
-0.000231 -0.000703 0
0.000000 0.000000 0
0.000000 0.000000 0
-0.000622 0.004064 0
-0.002322 0.008245 0
-0.004955 0.012320 0
-0.008388 0.016128 0
-0.012501 0.019564 0
-0.017182 0.022561 0
-0.022331 0.025087 0
-0.027850 0.027131 0
-0.033652 0.028699 0
-0.039652 0.029803 0
-0.045771 0.030461 0
-0.051932 0.030690 0
-0.058063 0.030505 0
-0.064091 0.029919 0
-0.069947 0.028943 0
-0.075563 0.027584 0
-0.080870 0.025849 0
-0.085802 0.023745 0
-0.090294 0.021283 0
-0.094282 0.018475 0
-0.097707 0.015342 0
-0.100511 0.011909 0
-0.102643 0.008209 0
-0.104056 0.004287 0
-0.104712 0.000194 0
-0.104582 -0.004009 0
-0.103647 -0.008251 0
-0.101900 -0.012456 0
-0.099346 -0.016538 0
-0.096008 -0.020409 0
-0.091920 -0.023978 0
-0.087135 -0.027156 0
-0.081722 -0.029858 0
-0.075766 -0.032004 0
-0.069367 -0.033527 0
-0.062639 -0.034376 0
-0.055706 -0.034516 0
-0.048702 -0.033934 0
-0.041765 -0.032641 0
-0.035031 -0.030674 0
-0.028635 -0.028095 0
-0.022697 -0.024993 0
-0.017327 -0.021485 0
-0.012614 -0.017711 0
-0.008623 -0.013834 0
-0.005396 -0.010039 0
-0.002946 -0.006530 0
-0.001258 -0.003528 0
-0.000296 -0.001268 0
0.000000 0.000000 0
0.000000 -0.000000 0
-0.000703 0.005300 0
-0.002614 0.010546 0
-0.005558 0.015532 0
-0.009377 0.020113 0
-0.013931 0.024196 0
-0.019091 0.027727 0
-0.024743 0.030681 0
-0.030781 0.033058 0
-0.037109 0.034869 0
-0.043636 0.036131 0
-0.050281 0.036868 0
-0.056963 0.037098 0
-0.063605 0.036842 0
-0.070136 0.036112 0
-0.076482 0.034922 0
-0.082572 0.033279 0
-0.088336 0.031192 0
-0.093706 0.028669 0
-0.098614 0.025721 0
-0.102993 0.022365 0
-0.106779 0.018622 0
-0.109912 0.014523 0
-0.112336 0.010107 0
-0.114001 0.005424 0
-0.114863 0.000534 0
-0.114887 -0.004492 0
-0.114048 -0.009574 0
-0.112335 -0.014621 0
-0.109747 -0.019533 0
-0.106301 -0.024209 0
-0.102027 -0.028540 0
-0.096976 -0.032419 0
-0.091215 -0.035745 0
-0.084828 -0.038422 0
-0.077920 -0.040366 0
-0.070609 -0.041514 0
-0.063029 -0.041818 0
-0.055323 -0.041260 0
-0.047643 -0.039846 0
-0.040142 -0.037614 0
-0.032970 -0.034635 0
-0.026270 -0.031009 0
-0.020167 -0.026869 0
-0.014771 -0.022376 0
-0.010165 -0.017720 0
-0.006408 -0.013111 0
-0.003526 -0.008781 0
-0.001521 -0.004978 0
-0.000363 -0.001962 0
0.000000 0.000000 0
0.000000 -0.000000 0
-0.000779 0.006677 0
-0.002888 0.013100 0
-0.006127 0.019084 0
-0.010313 0.024502 0
-0.015286 0.029278 0
-0.020903 0.033373 0
-0.027035 0.036776 0
-0.033568 0.039496 0
-0.040398 0.041554 0
-0.047432 0.042976 0
-0.054582 0.043787 0
-0.061765 0.044014 0
-0.068904 0.043678 0
-0.075922 0.042795 0
-0.082747 0.041379 0
-0.089307 0.039439 0
-0.095529 0.036983 0
-0.101342 0.034023 0
-0.106677 0.030569 0
-0.111465 0.026640 0
-0.115639 0.022261 0
-0.119135 0.017466 0
-0.121891 0.012298 0
-0.123853 0.006813 0
-0.124972 0.001080 0
-0.125206 -0.004823 0
-0.124524 -0.010803 0
-0.122906 -0.016757 0
-0.120345 -0.022572 0
-0.116849 -0.028129 0
-0.112445 -0.033303 0
-0.107176 -0.037969 0
-0.101106 -0.042005 0
-0.094319 -0.045298 0
-0.086921 -0.047746 0
-0.079033 -0.049267 0
-0.070799 -0.049802 0
-0.062372 -0.049320 0
-0.053919 -0.047822 0
-0.045611 -0.045346 0
-0.037617 -0.041967 0
-0.030102 -0.037797 0
-0.023213 -0.032984 0
-0.017082 -0.027713 0
-0.011814 -0.022198 0
-0.007486 -0.016679 0
-0.004142 -0.011417 0
-0.001797 -0.006692 0
-0.000432 -0.002789 0
0.000000 0.000000 0
0.000000 -0.000000 0
-0.000850 0.008188 0
-0.003145 0.015894 0
-0.006659 0.022957 0
-0.011190 0.029273 0
-0.016558 0.034785 0
-0.022604 0.039475 0
-0.029191 0.043346 0
-0.036193 0.046422 0
-0.043501 0.048733 0
-0.051017 0.050315 0
-0.058649 0.051200 0
-0.066313 0.051420 0
-0.073930 0.050999 0
-0.081423 0.049956 0
-0.088718 0.048307 0
-0.095742 0.046060 0
-0.102421 0.043227 0
-0.108685 0.039817 0
-0.114461 0.035844 0
-0.119678 0.031326 0
-0.124267 0.026291 0
-0.128160 0.020775 0
-0.131292 0.014826 0
-0.133601 0.008505 0
-0.135032 0.001887 0
-0.135537 -0.004940 0
-0.135075 -0.011874 0
-0.133619 -0.018800 0
-0.131151 -0.025590 0
-0.127672 -0.032109 0
-0.123198 -0.038213 0
-0.117766 -0.043758 0
-0.111435 -0.048601 0
-0.104285 -0.052607 0
-0.096420 -0.055653 0
-0.087967 -0.057636 0
-0.079075 -0.058479 0
-0.069910 -0.058139 0
-0.060654 -0.056607 0
-0.051497 -0.053916 0
-0.042630 -0.050144 0
-0.034242 -0.045413 0
-0.026507 -0.039888 0
-0.019582 -0.033775 0
-0.013596 -0.027316 0
-0.008649 -0.020782 0
-0.004806 -0.014469 0
-0.002094 -0.008688 0
-0.000505 -0.003759 0
0.000000 -0.000000 0
0.000000 0.000000 0
-0.000915 0.009822 0
-0.003382 0.018911 0
-0.007152 0.027129 0
-0.012003 0.034400 0
-0.017738 0.040692 0
-0.024185 0.046005 0
-0.031196 0.050364 0
-0.038638 0.053807 0
-0.046396 0.056379 0
-0.054367 0.058124 0
-0.062456 0.059084 0
-0.070579 0.059296 0
-0.078655 0.058788 0
-0.086606 0.057583 0
-0.094359 0.055697 0
-0.101840 0.053142 0
-0.108976 0.049926 0
-0.115696 0.046062 0
-0.121925 0.041562 0
-0.127592 0.036447 0
-0.132623 0.030743 0
-0.136948 0.024490 0
-0.140498 0.017739 0
-0.143204 0.010554 0
-0.145005 0.003016 0
-0.145844 -0.004780 0
-0.145671 -0.012721 0
-0.144447 -0.020681 0
-0.142146 -0.028519 0
-0.138756 -0.036082 0
-0.134282 -0.043208 0
-0.128752 -0.049732 0
-0.122215 -0.055487 0
-0.114747 -0.060314 0
-0.106450 -0.064064 0
-0.097451 -0.066612 0
-0.087905 -0.067859 0
-0.077990 -0.067740 0
-0.067903 -0.066236 0
-0.057855 -0.063371 0
-0.048062 -0.059222 0
-0.038740 -0.053920 0
-0.030093 -0.047644 0
-0.022308 -0.040624 0
-0.015542 -0.033130 0
-0.009920 -0.025469 0
-0.005530 -0.017973 0
-0.002417 -0.010992 0
-0.000586 -0.004882 0
0.000000 -0.000000 0
0.000000 0.000000 0
-0.000975 0.011570 0
-0.003599 0.022132 0
-0.007602 0.031577 0
-0.012745 0.039858 0
-0.018817 0.046967 0
-0.025634 0.052933 0
-0.033036 0.057799 0
-0.040886 0.061622 0
-0.049061 0.064462 0
-0.057456 0.066375 0
-0.065974 0.067413 0
-0.074529 0.067618 0
-0.083041 0.067026 0
-0.091431 0.065661 0
-0.099627 0.063540 0
-0.107556 0.060678 0
-0.115145 0.057083 0
-0.122322 0.052766 0
-0.129013 0.047740 0
-0.135146 0.042025 0
-0.140645 0.035648 0
-0.145435 0.028650 0
-0.149443 0.021082 0
-0.152596 0.013013 0
-0.154824 0.004527 0
-0.156061 -0.004275 0
-0.156247 -0.013271 0
-0.155332 -0.022325 0
-0.153276 -0.031282 0
-0.150054 -0.039973 0
-0.145659 -0.048217 0
-0.140105 -0.055825 0
-0.133431 -0.062606 0
-0.125703 -0.068373 0
-0.117018 -0.072949 0
-0.107504 -0.076180 0
-0.097319 -0.077940 0
-0.086651 -0.078141 0
-0.075712 -0.076742 0
-0.064735 -0.073757 0
-0.053965 -0.069259 0
-0.043646 -0.063382 0
-0.034017 -0.056321 0
-0.025298 -0.048327 0
-0.017680 -0.039703 0
-0.011320 -0.030794 0
-0.006330 -0.021972 0
-0.002775 -0.013633 0
-0.000675 -0.006176 0
0.000000 -0.000000 0
0.000000 0.000000 0
-0.001028 0.013421 0
-0.003793 0.025539 0
-0.008006 0.036275 0
-0.013412 0.045614 0
-0.019787 0.053580 0
-0.026938 0.060224 0
-0.034695 0.065616 0
-0.042916 0.069832 0
-0.051473 0.072949 0
-0.060257 0.075037 0
-0.069172 0.076158 0
-0.078129 0.076362 0
-0.087048 0.075690 0
-0.095854 0.074170 0
-0.104473 0.071822 0
-0.112835 0.068659 0
-0.120867 0.064692 0
-0.128498 0.059931 0
-0.135655 0.054387 0
-0.142265 0.048078 0
-0.148249 0.041032 0
-0.153533 0.033289 0
-0.158036 0.024900 0
-0.161681 0.015935 0
-0.164390 0.006480 0
-0.166088 -0.003357 0
-0.166704 -0.013450 0
-0.166175 -0.023652 0
-0.164447 -0.033797 0
-0.161481 -0.043699 0
-0.157252 -0.053157 0
-0.151760 -0.061960 0
-0.145030 -0.069889 0
-0.137115 -0.076726 0
-0.128105 -0.082263 0
-0.118122 -0.086311 0
-0.107326 -0.088712 0
-0.095914 -0.089347 0
-0.084114 -0.088151 0
-0.072179 -0.085118 0
-0.060382 -0.080312 0
-0.049004 -0.073868 0
-0.038320 -0.065992 0
-0.028590 -0.056960 0
-0.020043 -0.047108 0
-0.012872 -0.036820 0
-0.007219 -0.026518 0
-0.003175 -0.016647 0
-0.000775 -0.007658 0
0.000000 -0.000000 0
0.000000 0.000000 0
-0.001075 0.015363 0
-0.003962 0.029109 0
-0.008359 0.041196 0
-0.013996 0.051639 0
-0.020639 0.060493 0
-0.028085 0.067841 0
-0.036158 0.073777 0
-0.044709 0.078400 0
-0.053609 0.081803 0
-0.062744 0.084074 0
-0.072017 0.085285 0
-0.081340 0.085495 0
-0.090635 0.084751 0
-0.099826 0.083086 0
-0.108842 0.080521 0
-0.117614 0.077071 0
-0.126072 0.072746 0
-0.134146 0.067554 0
-0.141765 0.061506 0
-0.148854 0.054619 0
-0.155336 0.046916 0
-0.161132 0.038436 0
-0.166159 0.029230 0
-0.170335 0.019367 0
-0.173574 0.008934 0
-0.175792 -0.001960 0
-0.176907 -0.013183 0
-0.176843 -0.024581 0
-0.175529 -0.035976 0
-0.172910 -0.047168 0
-0.168944 -0.057937 0
-0.163612 -0.068047 0
-0.156921 -0.077251 0
-0.148909 -0.085298 0
-0.139652 -0.091943 0
-0.129266 -0.096959 0
-0.117908 -0.100148 0
-0.105779 -0.101354 0
-0.093122 -0.100478 0
-0.080211 -0.097489 0
-0.067349 -0.092434 0
-0.054853 -0.085444 0
-0.043042 -0.076735 0
-0.032220 -0.066604 0
-0.022660 -0.055421 0
-0.014598 -0.043618 0
-0.008212 -0.031669 0
-0.003623 -0.020076 0
-0.000888 -0.009351 0
0.000000 -0.000000 0
0.000000 0.000000 0
-0.001114 0.017384 0
-0.004105 0.032822 0
-0.008658 0.046309 0
-0.014492 0.057895 0
-0.021365 0.067669 0
-0.029064 0.075744 0
-0.037411 0.082241 0
-0.046248 0.087282 0
-0.055445 0.090983 0
-0.064887 0.093445 0
-0.074475 0.094754 0
-0.084124 0.094980 0
-0.093754 0.094175 0
-0.103293 0.092377 0
-0.112671 0.089610 0
-0.121823 0.085889 0
-0.130682 0.081225 0
-0.139179 0.075624 0
-0.147244 0.069094 0
-0.154805 0.061649 0
-0.161784 0.053310 0
-0.168101 0.044112 0
-0.173672 0.034103 0
-0.178408 0.023349 0
-0.182217 0.011937 0
-0.185008 -0.000023 0
-0.186686 -0.012399 0
-0.187161 -0.025030 0
-0.186348 -0.037730 0
-0.184172 -0.050284 0
-0.180573 -0.062455 0
-0.175510 -0.073983 0
-0.168968 -0.084591 0
-0.160967 -0.093994 0
-0.151564 -0.101906 0
-0.140862 -0.108056 0
-0.129012 -0.112199 0
-0.116217 -0.114134 0
-0.102727 -0.113720 0
-0.088839 -0.110891 0
-0.074885 -0.105669 0
-0.061223 -0.098174 0
-0.048216 -0.088626 0
-0.036219 -0.077342 0
-0.025559 -0.064730 0
-0.016519 -0.051268 0
-0.009323 -0.037492 0
-0.004127 -0.023970 0
-0.001016 -0.011281 0
0.000000 -0.000000 0
0.000000 0.000000 0
-0.001146 0.019469 0
-0.004221 0.036653 0
-0.008900 0.051583 0
-0.014895 0.064346 0
-0.021956 0.075066 0
-0.029865 0.083887 0
-0.038437 0.090961 0
-0.047513 0.096434 0
-0.056959 0.100442 0
-0.066659 0.103105 0
-0.076515 0.104522 0
-0.086440 0.104773 0
-0.096358 0.103919 0
-0.106199 0.102003 0
-0.115898 0.099052 0