# vtk DataFile Version 2.0
generated by CFD-lab course output (written by Tobias Neckel) 
ASCII

DATASET STRUCTURED_GRID
DIMENSIONS  51 51 1 
POINTS 2601 float

0.000000 0.000000 0
0.020000 0.000000 0
0.040000 0.000000 0
0.060000 0.000000 0
0.080000 0.000000 0
0.100000 0.000000 0
0.120000 0.000000 0
0.140000 0.000000 0
0.160000 0.000000 0
0.180000 0.000000 0
0.200000 0.000000 0
0.220000 0.000000 0
0.240000 0.000000 0
0.260000 0.000000 0
0.280000 0.000000 0
0.300000 0.000000 0
0.320000 0.000000 0
0.340000 0.000000 0
0.360000 0.000000 0
0.380000 0.000000 0
0.400000 0.000000 0
0.420000 0.000000 0
0.440000 0.000000 0
0.460000 0.000000 0
0.480000 0.000000 0
0.500000 0.000000 0
0.520000 0.000000 0
0.540000 0.000000 0
0.560000 0.000000 0
0.580000 0.000000 0
0.600000 0.000000 0
0.620000 0.000000 0
0.640000 0.000000 0
0.660000 0.000000 0
0.680000 0.000000 0
0.700000 0.000000 0
0.720000 0.000000 0
0.740000 0.000000 0
0.760000 0.000000 0
0.780000 0.000000 0
0.800000 0.000000 0
0.820000 0.000000 0
0.840000 0.000000 0
0.860000 0.000000 0
0.880000 0.000000 0
0.900000 0.000000 0
0.920000 0.000000 0
0.940000 0.000000 0
0.960000 0.000000 0
0.980000 0.000000 0
1.000000 0.000000 0
0.000000 0.020000 0
0.020000 0.020000 0
0.040000 0.020000 0
0.060000 0.020000 0
0.080000 0.020000 0
0.100000 0.020000 0
0.120000 0.020000 0
0.140000 0.020000 0
0.160000 0.020000 0
0.180000 0.020000 0
0.200000 0.020000 0
0.220000 0.020000 0
0.240000 0.020000 0
0.260000 0.020000 0
0.280000 0.020000 0
0.300000 0.020000 0
0.320000 0.020000 0
0.340000 0.020000 0
0.360000 0.020000 0
0.380000 0.020000 0
0.400000 0.020000 0
0.420000 0.020000 0
0.440000 0.020000 0
0.460000 0.020000 0
0.480000 0.020000 0
0.500000 0.020000 0
0.520000 0.020000 0
0.540000 0.020000 0
0.560000 0.020000 0
0.580000 0.020000 0
0.600000 0.020000 0
0.620000 0.020000 0
0.640000 0.020000 0
0.660000 0.020000 0
0.680000 0.020000 0
0.700000 0.020000 0
0.720000 0.020000 0
0.740000 0.020000 0
0.760000 0.020000 0
0.780000 0.020000 0
0.800000 0.020000 0
0.820000 0.020000 0
0.840000 0.020000 0
0.860000 0.020000 0
0.880000 0.020000 0
0.900000 0.020000 0
0.920000 0.020000 0
0.940000 0.020000 0
0.960000 0.020000 0
0.980000 0.020000 0
1.000000 0.020000 0
0.000000 0.040000 0
0.020000 0.040000 0
0.040000 0.040000 0
0.060000 0.040000 0
0.080000 0.040000 0
0.100000 0.040000 0
0.120000 0.040000 0
0.140000 0.040000 0
0.160000 0.040000 0
0.180000 0.040000 0
0.200000 0.040000 0
0.220000 0.040000 0
0.240000 0.040000 0
0.260000 0.040000 0
0.280000 0.040000 0
0.300000 0.040000 0
0.320000 0.040000 0
0.340000 0.040000 0
0.360000 0.040000 0
0.380000 0.040000 0
0.400000 0.040000 0
0.420000 0.040000 0
0.440000 0.040000 0
0.460000 0.040000 0
0.480000 0.040000 0
0.500000 0.040000 0
0.520000 0.040000 0
0.540000 0.040000 0
0.560000 0.040000 0
0.580000 0.040000 0
0.600000 0.040000 0
0.620000 0.040000 0
0.640000 0.040000 0
0.660000 0.040000 0
0.680000 0.040000 0
0.700000 0.040000 0
0.720000 0.040000 0
0.740000 0.040000 0
0.760000 0.040000 0
0.780000 0.040000 0
0.800000 0.040000 0
0.820000 0.040000 0
0.840000 0.040000 0
0.860000 0.040000 0
0.880000 0.040000 0
0.900000 0.040000 0
0.920000 0.040000 0
0.940000 0.040000 0
0.960000 0.040000 0
0.980000 0.040000 0
1.000000 0.040000 0
0.000000 0.060000 0
0.020000 0.060000 0
0.040000 0.060000 0
0.060000 0.060000 0
0.080000 0.060000 0
0.100000 0.060000 0
0.120000 0.060000 0
0.140000 0.060000 0
0.160000 0.060000 0
0.180000 0.060000 0
0.200000 0.060000 0
0.220000 0.060000 0
0.240000 0.060000 0
0.260000 0.060000 0
0.280000 0.060000 0
0.300000 0.060000 0
0.320000 0.060000 0
0.340000 0.060000 0
0.360000 0.060000 0
0.380000 0.060000 0
0.400000 0.060000 0
0.420000 0.060000 0
0.440000 0.060000 0
0.460000 0.060000 0
0.480000 0.060000 0
0.500000 0.060000 0
0.520000 0.060000 0
0.540000 0.060000 0
0.560000 0.060000 0
0.580000 0.060000 0
0.600000 0.060000 0
0.620000 0.060000 0
0.640000 0.060000 0
0.660000 0.060000 0
0.680000 0.060000 0
0.700000 0.060000 0
0.720000 0.060000 0
0.740000 0.060000 0
0.760000 0.060000 0
0.780000 0.060000 0
0.800000 0.060000 0
0.820000 0.060000 0
0.840000 0.060000 0
0.860000 0.060000 0
0.880000 0.060000 0
0.900000 0.060000 0
0.920000 0.060000 0
0.940000 0.060000 0
0.960000 0.060000 0
0.980000 0.060000 0
1.000000 0.060000 0
0.000000 0.080000 0
0.020000 0.080000 0
0.040000 0.080000 0
0.060000 0.080000 0
0.080000 0.080000 0
0.100000 0.080000 0
0.120000 0.080000 0
0.140000 0.080000 0
0.160000 0.080000 0
0.180000 0.080000 0
0.200000 0.080000 0
0.220000 0.080000 0
0.240000 0.080000 0
0.260000 0.080000 0
0.280000 0.080000 0
0.300000 0.080000 0
0.320000 0.080000 0
0.340000 0.080000 0
0.360000 0.080000 0
0.380000 0.080000 0
0.400000 0.080000 0
0.420000 0.080000 0
0.440000 0.080000 0
0.460000 0.080000 0
0.480000 0.080000 0
0.500000 0.080000 0
0.520000 0.080000 0
0.540000 0.080000 0
0.560000 0.080000 0
0.580000 0.080000 0
0.600000 0.080000 0
0.620000 0.080000 0
0.640000 0.080000 0
0.660000 0.080000 0
0.680000 0.080000 0
0.700000 0.080000 0
0.720000 0.080000 0
0.740000 0.080000 0
0.760000 0.080000 0
0.780000 0.080000 0
0.800000 0.080000 0
0.820000 0.080000 0
0.840000 0.080000 0
0.860000 0.080000 0
0.880000 0.080000 0
0.900000 0.080000 0
0.920000 0.080000 0
0.940000 0.080000 0
0.960000 0.080000 0
0.980000 0.080000 0
1.000000 0.080000 0
0.000000 0.100000 0
0.020000 0.100000 0
0.040000 0.100000 0
0.060000 0.100000 0
0.080000 0.100000 0
0.100000 0.100000 0
0.120000 0.100000 0
0.140000 0.100000 0
0.160000 0.100000 0
0.180000 0.100000 0
0.200000 0.100000 0
0.220000 0.100000 0
0.240000 0.100000 0
0.260000 0.100000 0
0.280000 0.100000 0
0.300000 0.100000 0
0.320000 0.100000 0
0.340000 0.100000 0
0.360000 0.100000 0
0.380000 0.100000 0
0.400000 0.100000 0
0.420000 0.100000 0
0.440000 0.100000 0
0.460000 0.100000 0
0.480000 0.100000 0
0.500000 0.100000 0
0.520000 0.100000 0
0.540000 0.100000 0
0.560000 0.100000 0
0.580000 0.100000 0
0.600000 0.100000 0
0.620000 0.100000 0
0.640000 0.100000 0
0.660000 0.100000 0
0.680000 0.100000 0
0.700000 0.100000 0
0.720000 0.100000 0
0.740000 0.100000 0
0.760000 0.100000 0
0.780000 0.100000 0
0.800000 0.100000 0
0.820000 0.100000 0
0.840000 0.100000 0
0.860000 0.100000 0
0.880000 0.100000 0
0.900000 0.100000 0
0.920000 0.100000 0
0.940000 0.100000 0
0.960000 0.100000 0
0.980000 0.100000 0
1.000000 0.100000 0
0.000000 0.120000 0
0.020000 0.120000 0
0.040000 0.120000 0
0.060000 0.120000 0
0.080000 0.120000 0
0.100000 0.120000 0
0.120000 0.120000 0
0.140000 0.120000 0
0.160000 0.120000 0
0.180000 0.120000 0
0.200000 0.120000 0
0.220000 0.120000 0
0.240000 0.120000 0
0.260000 0.120000 0
0.280000 0.120000 0
0.300000 0.120000 0
0.320000 0.120000 0
0.340000 0.120000 0
0.360000 0.120000 0
0.380000 0.120000 0
0.400000 0.120000 0
0.420000 0.120000 0
0.440000 0.120000 0
0.460000 0.120000 0
0.480000 0.120000 0
0.500000 0.120000 0
0.520000 0.120000 0
0.540000 0.120000 0
0.560000 0.120000 0
0.580000 0.120000 0
0.600000 0.120000 0
0.620000 0.120000 0
0.640000 0.120000 0
0.660000 0.120000 0
0.680000 0.120000 0
0.700000 0.120000 0
0.720000 0.120000 0
0.740000 0.120000 0
0.760000 0.120000 0
0.780000 0.120000 0
0.800000 0.120000 0
0.820000 0.120000 0
0.840000 0.120000 0
0.860000 0.120000 0
0.880000 0.120000 0
0.900000 0.120000 0
0.920000 0.120000 0
0.940000 0.120000 0
0.960000 0.120000 0
0.980000 0.120000 0
1.000000 0.120000 0
0.000000 0.140000 0
0.020000 0.140000 0
0.040000 0.140000 0
0.060000 0.140000 0
0.080000 0.140000 0
0.100000 0.140000 0
0.120000 0.140000 0
0.140000 0.140000 0
0.160000 0.140000 0
0.180000 0.140000 0
0.200000 0.140000 0
0.220000 0.140000 0
0.240000 0.140000 0
0.260000 0.140000 0
0.280000 0.140000 0
0.300000 0.140000 0
0.320000 0.140000 0
0.340000 0.140000 0
0.360000 0.140000 0
0.380000 0.140000 0
0.400000 0.140000 0
0.420000 0.140000 0
0.440000 0.140000 0
0.460000 0.140000 0
0.480000 0.140000 0
0.500000 0.140000 0
0.520000 0.140000 0
0.540000 0.140000 0
0.560000 0.140000 0
0.580000 0.140000 0
0.600000 0.140000 0
0.620000 0.140000 0
0.640000 0.140000 0
0.660000 0.140000 0
0.680000 0.140000 0
0.700000 0.140000 0
0.720000 0.140000 0
0.740000 0.140000 0
0.760000 0.140000 0
0.780000 0.140000 0
0.800000 0.140000 0
0.820000 0.140000 0
0.840000 0.140000 0
0.860000 0.140000 0
0.880000 0.140000 0
0.900000 0.140000 0
0.920000 0.140000 0
0.940000 0.140000 0
0.960000 0.140000 0
0.980000 0.140000 0
1.000000 0.140000 0
0.000000 0.160000 0
0.020000 0.160000 0
0.040000 0.160000 0
0.060000 0.160000 0
0.080000 0.160000 0
0.100000 0.160000 0
0.120000 0.160000 0
0.140000 0.160000 0
0.160000 0.160000 0
0.180000 0.160000 0
0.200000 0.160000 0
0.220000 0.160000 0
0.240000 0.160000 0
0.260000 0.160000 0
0.280000 0.160000 0
0.300000 0.160000 0
0.320000 0.160000 0
0.340000 0.160000 0
0.360000 0.160000 0
0.380000 0.160000 0
0.400000 0.160000 0
0.420000 0.160000 0
0.440000 0.160000 0
0.460000 0.160000 0
0.480000 0.160000 0
0.500000 0.160000 0
0.520000 0.160000 0
0.540000 0.160000 0
0.560000 0.160000 0
0.580000 0.160000 0
0.600000 0.160000 0
0.620000 0.160000 0
0.640000 0.160000 0
0.660000 0.160000 0
0.680000 0.160000 0
0.700000 0.160000 0
0.720000 0.160000 0
0.740000 0.160000 0
0.760000 0.160000 0
0.780000 0.160000 0
0.800000 0.160000 0
0.820000 0.160000 0
0.840000 0.160000 0
0.860000 0.160000 0
0.880000 0.160000 0
0.900000 0.160000 0
0.920000 0.160000 0
0.940000 0.160000 0
0.960000 0.160000 0
0.980000 0.160000 0
1.000000 0.160000 0
0.000000 0.180000 0
0.020000 0.180000 0
0.040000 0.180000 0
0.060000 0.180000 0
0.080000 0.180000 0
0.100000 0.180000 0
0.120000 0.180000 0
0.140000 0.180000 0
0.160000 0.180000 0
0.180000 0.180000 0
0.200000 0.180000 0
0.220000 0.180000 0
0.240000 0.180000 0
0.260000 0.180000 0
0.280000 0.180000 0
0.300000 0.180000 0
0.320000 0.180000 0
0.340000 0.180000 0
0.360000 0.180000 0
0.380000 0.180000 0
0.400000 0.180000 0
0.420000 0.180000 0
0.440000 0.180000 0
0.460000 0.180000 0
0.480000 0.180000 0
0.500000 0.180000 0
0.520000 0.180000 0
0.540000 0.180000 0
0.560000 0.180000 0
0.580000 0.180000 0
0.600000 0.180000 0
0.620000 0.180000 0
[...]
POINT_DATA 2601 

VECTORS velocity float
0.000000 0.000000 0
0.000000 0.000000 0
-0.000000 0.000000 0
-0.000001 0.000000 0
-0.000000 0.000000 0
0.000000 0.000000 0
0.000000 0.000000 0
0.000000 0.000000 0
0.000000 0.000000 0
-0.000000 0.000000 0
-0.000000 0.000000 0
-0.000000 0.000000 0
-0.000000 0.000000 0
0.000000 0.000000 0
0.000000 0.000000 0
0.000000 0.000000 0
-0.000000 0.000000 0
-0.000000 0.000000 0
-0.000000 0.000000 0
-0.000000 0.000000 0
-0.000000 0.000000 0
-0.000000 0.000000 0
-0.000000 0.000000 0
-0.000000 0.000000 0
-0.000000 0.000000 0
-0.000000 0.000000 0
-0.000000 0.000000 0
-0.000000 0.000000 0
-0.000000 0.000000 0
-0.000000 0.000000 0
-0.000000 0.000000 0
-0.000000 0.000000 0
-0.000000 0.000000 0
-0.000000 0.000000 0
-0.000000 0.000000 0
-0.000000 0.000000 0
-0.000000 0.000000 0
-0.000000 0.000000 0
-0.000000 0.000000 0
-0.000000 0.000000 0
-0.000000 0.000000 0
-0.000000 0.000000 0
-0.000000 0.000000 0
0.000000 0.000000 0
0.000000 0.000000 0
0.000000 0.000000 0
0.000000 0.000000 0
0.000000 0.000000 0
0.000000 0.000000 0
0.000000 0.000000 0
0.000000 0.000000 0
0.000000 0.000000 0
0.000060 -0.000059 0
0.000080 -0.000023 0
-0.000015 0.000055 0
-0.000256 0.000143 0
-0.000644 0.000227 0
-0.001168 0.000301 0
-0.001810 0.000362 0
-0.002549 0.000410 0
-0.003366 0.000447 0
-0.004240 0.000474 0
-0.005153 0.000491 0
-0.006091 0.000500 0
-0.007037 0.000502 0
-0.007979 0.000497 0
-0.008903 0.000484 0
-0.009796 0.000466 0
-0.010647 0.000440 0
-0.011441 0.000409 0
-0.012168 0.000370 0
-0.012815 0.000325 0
-0.013369 0.000273 0
-0.013818 0.000215 0
-0.014153 0.000151 0
-0.014362 0.000082 0
-0.014439 0.000009 0
-0.014376 -0.000068 0
-0.014170 -0.000146 0
-0.013819 -0.000224 0
-0.013328 -0.000300 0
-0.012701 -0.000372 0
-0.011948 -0.000437 0
-0.011082 -0.000495 0
-0.010121 -0.000542 0
-0.009085 -0.000577 0
-0.007997 -0.000598 0
-0.006882 -0.000605 0
-0.005767 -0.000596 0
-0.004679 -0.000572 0
-0.003647 -0.000533 0
-0.002695 -0.000480 0
-0.001847 -0.000415 0
-0.001124 -0.000339 0
-0.000541 -0.000255 0
-0.000109 -0.000167 0
0.000170 -0.000080 0
0.000302 0.000001 0
0.000304 0.000066 0
0.000212 0.000100 0
0.000082 0.000082 0
0.000000 0.000000 0
0.000000 -0.000000 0
0.000023 -0.000081 0
-0.000076 0.000074 0
-0.000386 0.000336 0
-0.000942 0.000630 0
-0.001749 0.000913 0
-0.002789 0.001166 0
-0.004033 0.001381 0
-0.005449 0.001555 0
-0.007003 0.001690 0
-0.008660 0.001788 0
-0.010390 0.001852 0
-0.012162 0.001884 0
-0.013949 0.001889 0
-0.015724 0.001866 0
-0.017463 0.001817 0
-0.019142 0.001743 0
-0.020735 0.001645 0
-0.022221 0.001521 0
-0.023575 0.001373 0
-0.024776 0.001200 0
-0.025799 0.001004 0
-0.026625 0.000784 0
-0.027234 0.000544 0
-0.027609 0.000286 0
-0.027735 0.000013 0
-0.027602 -0.000269 0
-0.027205 -0.000556 0
-0.026543 -0.000842 0
-0.025622 -0.001119 0
-0.024453 -0.001380 0
-0.023055 -0.001618 0
-0.021451 -0.001826 0
-0.019673 -0.001997 0
-0.017757 -0.002125 0
-0.015745 -0.002203 0
-0.013682 -0.002230 0
-0.011615 -0.002202 0
-0.009594 -0.002120 0
-0.007667 -0.001984 0
-0.005879 -0.001799 0
-0.004272 -0.001571 0
-0.002883 -0.001306 0
-0.001737 -0.001015 0
-0.000852 -0.000711 0
-0.000234 -0.000411 0
0.000129 -0.000134 0
0.000266 0.000090 0
0.000230 0.000222 0
0.000102 0.000212 0
0.000000 0.000000 0
0.000000 -0.000001 0
-0.000057 0.000016 0
-0.000350 0.000386 0
-0.000946 0.000922 0
-0.001873 0.001507 0
-0.003128 0.002074 0
-0.004688 0.002585 0
-0.006517 0.003022 0
-0.008572 0.003380 0
-0.010810 0.003658 0
-0.013187 0.003861 0
-0.015659 0.003993 0
-0.018186 0.004060 0
-0.020730 0.004064 0
-0.023253 0.004011 0
-0.025721 0.003902 0
-0.028097 0.003738 0
-0.030350 0.003520 0
-0.032444 0.003249 0
-0.034349 0.002925 0
-0.036032 0.002549 0
-0.037462 0.002123 0
-0.038611 0.001650 0
-0.039452 0.001135 0
-0.039963 0.000583 0
-0.040125 0.000002 0
-0.039925 -0.000597 0
-0.039357 -0.001204 0
-0.038421 -0.001807 0
-0.037125 -0.002390 0
-0.035485 -0.002939 0
-0.033528 -0.003440 0
-0.031287 -0.003876 0
-0.028803 -0.004236 0
-0.026127 -0.004505 0
-0.023315 -0.004674 0
-0.020426 -0.004735 0
-0.017526 -0.004684 0
-0.014681 -0.004521 0
-0.011954 -0.004249 0
-0.009409 -0.003875 0
-0.007100 -0.003411 0
-0.005076 -0.002874 0
-0.003373 -0.002285 0
-0.002016 -0.001670 0
-0.001011 -0.001061 0
-0.000347 -0.000498 0
0.000010 -0.000035 0
0.000121 0.000263 0
0.000076 0.000311 0
0.000000 0.000000 0
0.000000 -0.000001 0
-0.000154 0.000268 0
-0.000674 0.000964 0
-0.001598 0.001861 0
-0.002931 0.002812 0
-0.004658 0.003728 0
-0.006745 0.004554 0
-0.009149 0.005265 0
-0.011820 0.005849 0
-0.014706 0.006305 0
-0.017755 0.006637 0
-0.020916 0.006851 0
-0.024137 0.006955 0
-0.027373 0.006955 0
-0.030576 0.006856 0
-0.033703 0.006661 0
-0.036711 0.006373 0
-0.039556 0.005992 0
-0.042198 0.005521 0
-0.044595 0.004961 0
-0.046709 0.004313 0
-0.048501 0.003583 0
-0.049937 0.002774 0
-0.050984 0.001896 0
-0.051617 0.000959 0
-0.051812 -0.000024 0
-0.051555 -0.001037 0
-0.050839 -0.002061 0
-0.049665 -0.003074 0
-0.048043 -0.004054 0
-0.045995 -0.004977 0
-0.043551 -0.005817 0
-0.040752 -0.006551 0
-0.037649 -0.007157 0
-0.034302 -0.007613 0
-0.030780 -0.007905 0
-0.027154 -0.008018 0
-0.023504 -0.007948 0
-0.019908 -0.007692 0
-0.016445 -0.007256 0
-0.013190 -0.006654 0
-0.010212 -0.005904 0
-0.007568 -0.005033 0
-0.005306 -0.004075 0
-0.003454 -0.003073 0
-0.002026 -0.002079 0
-0.001011 -0.001156 0
-0.000375 -0.000379 0
-0.000060 0.000157 0
0.000025 0.000333 0
0.000000 0.000000 0
0.000000 -0.000000 0
-0.000253 0.000691 0
-0.001017 0.001832 0
-0.002287 0.003179 0
-0.004044 0.004566 0
-0.006254 0.005886 0
-0.008873 0.007075 0
-0.011846 0.008097 0
-0.015117 0.008938 0
-0.018625 0.009594 0
-0.022313 0.010070 0
-0.026119 0.010375 0
-0.029989 0.010517 0
-0.033866 0.010503 0
-0.037698 0.010341 0
-0.041433 0.010036 0
-0.045019 0.009590 0
-0.048408 0.009007 0
-0.051550 0.008288 0
-0.054399 0.007436 0
-0.056908 0.006455 0
-0.059034 0.005351 0
-0.060736 0.004134 0
-0.061979 0.002815 0
-0.062731 0.001411 0
-0.062967 -0.000059 0
-0.062672 -0.001570 0
-0.061836 -0.003095 0
-0.060461 -0.004603 0
-0.058560 -0.006060 0
-0.056156 -0.007432 0
-0.053285 -0.008683 0
-0.049992 -0.009778 0
-0.046337 -0.010685 0
-0.042387 -0.011374 0
-0.038220 -0.011822 0
-0.033918 -0.012011 0
-0.029572 -0.011930 0
-0.025272 -0.011580 0
-0.021109 -0.010966 0
-0.017171 -0.010108 0
-0.013536 -0.009033 0
-0.010274 -0.007781 0
-0.007440 -0.006399 0
-0.005072 -0.004950 0
-0.003189 -0.003504 0
-0.001786 -0.002149 0
-0.000834 -0.000986 0
-0.000278 -0.000137 0
-0.000036 0.000252 0
0.000000 0.000000 0
0.000000 0.000000 0
-0.000351 0.001286 0
-0.001359 0.002998 0
-0.002981 0.004887 0
-0.005168 0.006779 0
-0.007866 0.008555 0
-0.011015 0.010146 0
-0.014550 0.011509 0
-0.018407 0.012629 0
-0.022517 0.013501 0
-0.026816 0.014130 0
-0.031237 0.014527 0
-0.035718 0.014702 0
-0.040199 0.014664 0
-0.044620 0.014422 0
-0.048922 0.013982 0
-0.053049 0.013348 0
-0.056946 0.012523 0
-0.060557 0.011512 0
-0.063830 0.010318 0
-0.066713 0.008948 0
-0.069158 0.007411 0
-0.071120 0.005719 0
-0.072559 0.003891 0
-0.073439 0.001947 0
-0.073734 -0.000083 0
-0.073425 -0.002169 0
-0.072502 -0.004272 0
-0.070966 -0.006350 0
-0.068830 -0.008359 0
-0.066120 -0.010252 0
-0.062874 -0.011981 0
-0.059142 -0.013498 0
-0.054987 -0.014762 0
-0.050484 -0.015731 0
-0.045718 -0.016374 0
-0.040781 -0.016666 0
-0.035772 -0.016594 0
-0.030793 -0.016154 0
-0.025947 -0.015358 0
-0.021331 -0.014227 0
-0.017038 -0.012801 0
-0.013146 -0.011129 0
-0.009722 -0.009277 0
-0.006814 -0.007324 0
-0.004448 -0.005365 0
-0.002628 -0.003511 0
-0.001333 -0.001887 0
-0.000514 -0.000641 0
-0.000101 0.000055 0
0.000000 0.000000 0
0.000000 0.000000 0
-0.000446 0.002051 0
-0.001694 0.004462 0
-0.003664 0.006987 0
-0.006278 0.009450 0
-0.009459 0.011733 0
-0.013132 0.013760 0
-0.017221 0.015490 0
-0.021649 0.016905 0
-0.026342 0.018003 0
-0.031229 0.018790 0
-0.036239 0.019278 0
-0.041304 0.019479 0
-0.046359 0.019405 0
-0.051338 0.019064 0
-0.056178 0.018466 0
-0.060819 0.017614 0
-0.065200 0.016515 0
-0.069260 0.015172 0
-0.072942 0.013592 0
-0.076191 0.011783 0
-0.078952 0.009758 0
-0.081178 0.007534 0
-0.082824 0.005134 0
-0.083852 0.002586 0
-0.084231 -0.000073 0
-0.083940 -0.002802 0
-0.082968 -0.005554 0
-0.081313 -0.008274 0
-0.078989 -0.010905 0
-0.076020 -0.013388 0
-0.072447 -0.015661 0
-0.068321 -0.017665 0
-0.063709 -0.019343 0
-0.058691 -0.020644 0
-0.053358 -0.021526 0
-0.047810 -0.021957 0
-0.042156 -0.021918 0
-0.036507 -0.021404 0
-0.030978 -0.020428 0
-0.025678 -0.019017 0
-0.020710 -0.017219 0
-0.016168 -0.015096 0
-0.012130 -0.012731 0
-0.008653 -0.010223 0
-0.005777 -0.007690 0
-0.003514 -0.005265 0
-0.001853 -0.003100 0
-0.000758 -0.001368 0
-0.000166 -0.000262 0
0.000000 0.000000 0
0.000000 0.000000 0
-0.000536 0.002980 0
-0.002016 0.006216 0
-0.004325 0.009471 0
-0.007356 0.012574 0
-0.011012 0.015411 0
-0.015198 0.017907 0
-0.019827 0.020026 0
-0.024811 0.021750 0
-0.030070 0.023081 0
-0.035525 0.024027 0
-0.041101 0.024602 0
-0.046727 0.024821 0
-0.052331 0.024698 0
-0.057845 0.024242 0
-0.063203 0.023464 0
-0.068339 0.022369 0
-0.073188 0.020964 0
-0.077687 0.019255 0
-0.081773 0.017249 0
-0.085388 0.014959 0
-0.088474 0.012399 0
-0.090978 0.009591 0
-0.092853 0.006564 0
-0.094056 0.003354 0
-0.094553 0.000005 0
-0.094319 -0.003432 0
-0.093340 -0.006899 0
-0.091613 -0.010329 0
-0.089148 -0.013652 0
-0.085968 -0.016794 0
-0.082113 -0.019680 0
-0.077635 -0.022236 0
-0.072604 -0.024391 0
-0.067101 -0.026082 0
-0.061225 -0.027255 0
-0.055081 -0.027868 0
-0.048787 -0.027897 0
-0.042465 -0.027333 0
-0.036240 -0.026188 0
-0.030236 -0.024495 0
-0.024569 -0.022310 0
-0.019347 -0.019709 0
-0.014661 -0.016792 0
-0.010585 -0.013677 0
-0.007168 -0.010505 0
-0.004436 -0.007434 0
-0.002391 -0.004643 0
-0.001005 -0.002328 0
-0.000231 -0.000703 0
0.000000 0.000000 0
0.000000 0.000000 0
-0.000622 0.004066 0
-0.002324 0.008250 0
-0.004958 0.012327 0
-0.008394 0.016138 0
-0.012509 0.019576 0
-0.017194 0.022575 0
-0.022346 0.025102 0
-0.027869 0.027148 0
-0.033674 0.028717 0
-0.039678 0.029821 0
-0.045800 0.030480 0
-0.051965 0.030708 0
-0.058099 0.030523 0
-0.064131 0.029937 0
-0.069990 0.028959 0
-0.075609 0.027599 0
-0.080919 0.025862 0
-0.085853 0.023757 0
-0.090347 0.021293 0
-0.094337 0.018484 0
-0.097763 0.015348 0
-0.100568 0.011913 0
-0.102700 0.008211 0
-0.104113 0.004286 0
-0.104769 0.000190 0
-0.104638 -0.004015 0
-0.103701 -0.008260 0
-0.101952 -0.012466 0
-0.099397 -0.016550 0
-0.096056 -0.020423 0
-0.091965 -0.023994 0
-0.087177 -0.027174 0
-0.081761 -0.029876 0
-0.075801 -0.032023 0
-0.069399 -0.033546 0
-0.062667 -0.034395 0
-0.055731 -0.034534 0
-0.048723 -0.033951 0
-0.041783 -0.032657 0
-0.035046 -0.030688 0
-0.028646 -0.028107 0
-0.022706 -0.025004 0
-0.017334 -0.021494 0
-0.012618 -0.017717 0
-0.008626 -0.013838 0
-0.005398 -0.010042 0
-0.002946 -0.006531 0
-0.001259 -0.003528 0
-0.000296 -0.001268 0
0.000000 0.000000 0
0.000000 -0.000000 0
-0.000703 0.005303 0
-0.002615 0.010552 0
-0.005562 0.015541 0
-0.009384 0.020126 0
-0.013941 0.024211 0
-0.019104 0.027744 0
-0.024760 0.030700 0
-0.030801 0.033079 0
-0.037133 0.034890 0
-0.043664 0.036153 0
-0.050313 0.036890 0
-0.056998 0.037120 0
-0.063645 0.036863 0
-0.070179 0.036133 0
-0.076528 0.034942 0
-0.082622 0.033297 0
-0.088389 0.031208 0
-0.093762 0.028683 0
-0.098671 0.025733 0
-0.103052 0.022375 0
-0.106839 0.018629 0
-0.109973 0.014528 0
-0.112398 0.010109 0
-0.114062 0.005423 0
-0.114924 0.000530 0
-0.114947 -0.004500 0
-0.114107 -0.009584 0
-0.112392 -0.014633 0
-0.109802 -0.019549 0
-0.106353 -0.024226 0
-0.102076 -0.028559 0
-0.097022 -0.032440 0
-0.091257 -0.035767 0
-0.084867 -0.038444 0
-0.077955 -0.040389 0
-0.070640 -0.041536 0
-0.063056 -0.041840 0
-0.055347 -0.041281 0
-0.047663 -0.039865 0
-0.040159 -0.037632 0
-0.032984 -0.034650 0
-0.026280 -0.031022 0
-0.020175 -0.026879 0
-0.014776 -0.022384 0
-0.010169 -0.017725 0
-0.006410 -0.013114 0
-0.003527 -0.008782 0
-0.001521 -0.004978 0
-0.000363 -0.001961 0
0.000000 0.000000 0
0.000000 -0.000000 0
-0.000779 0.006681 0
-0.002890 0.013109 0
-0.006131 0.019096 0
-0.010320 0.024517 0
-0.015297 0.029296 0
-0.020917 0.033393 0
-0.027053 0.036799 0
-0.033590 0.039521 0
-0.040424 0.041580 0
-0.047462 0.043002 0
-0.054616 0.043814 0
-0.061803 0.044040 0
-0.068946 0.043704 0
-0.075969 0.042820 0
-0.082797 0.041402 0
-0.089360 0.039460 0
-0.095585 0.037003 0
-0.101401 0.034040 0
-0.106738 0.030583 0
-0.111528 0.026652 0
-0.115703 0.022270 0
-0.119199 0.017471 0
-0.121956 0.012300 0
-0.123918 0.006812 0
-0.125037 0.001075 0
-0.125270 -0.004831 0
-0.124587 -0.010815 0
-0.122967 -0.016771 0
-0.120403 -0.022589 0
-0.116905 -0.028149 0
-0.112498 -0.033325 0
-0.107226 -0.037993 0
-0.101152 -0.042031 0
-0.094362 -0.045325 0
-0.086959 -0.047773 0
-0.079068 -0.049294 0
-0.070829 -0.049828 0
-0.062399 -0.049344 0
-0.053942 -0.047845 0
-0.045630 -0.045367 0
-0.037633 -0.041986 0
-0.030114 -0.037812 0
-0.023222 -0.032997 0
-0.017089 -0.027723 0
-0.011819 -0.022205 0
-0.007488 -0.016683 0
-0.004144 -0.011420 0
-0.001798 -0.006693 0
-0.000432 -0.002789 0
0.000000 -0.000000 0
0.000000 -0.000000 0
-0.000850 0.008193 0
-0.003147 0.015904 0
-0.006664 0.022971 0
-0.011198 0.029291 0
-0.016569 0.034807 0
-0.022619 0.039499 0
-0.029210 0.043373 0
-0.036216 0.046451 0
-0.043529 0.048763 0
-0.051049 0.050345 0
-0.058686 0.051231 0
-0.066354 0.051450 0
-0.073975 0.051028 0
-0.081472 0.049984 0
-0.088770 0.048333 0
-0.095797 0.046085 0
-0.102480 0.043249 0
-0.108746 0.039837 0
-0.114524 0.035860 0
-0.119744 0.031339 0
-0.124334 0.026301 0
-0.128228 0.020781 0
-0.131360 0.014828 0
-0.133669 0.008504 0
-0.135100 0.001881 0
-0.135604 -0.004950 0
-0.135141 -0.011888 0
-0.133682 -0.018817 0
-0.131213 -0.025610 0
-0.127731 -0.032131 0
-0.123254 -0.038238 0
-0.117819 -0.043786 0
-0.111484 -0.048631 0
-0.104330 -0.052637 0
-0.096461 -0.055683 0
-0.088005 -0.057666 0
-0.079108 -0.058509 0
-0.069940 -0.058168 0
-0.060679 -0.056634 0
-0.051518 -0.053941 0
-0.042647 -0.050166 0
-0.034255 -0.045432 0
-0.026517 -0.039904 0
-0.019589 -0.033788 0
-0.013602 -0.027325 0
-0.008653 -0.020789 0
-0.004808 -0.014473 0
-0.002094 -0.008690 0
-0.000506 -0.003759 0
0.000000 -0.000000 0
0.000000 0.000000 0
-0.000915 0.009829 0
-0.003385 0.018923 0
-0.007157 0.027147 0
-0.012011 0.034422 0
-0.017749 0.040717 0
-0.024201 0.046034 0
-0.031216 0.050396 0
-0.038663 0.053840 0
-0.046425 0.056413 0
-0.054400 0.058158 0
-0.062494 0.059119 0
-0.070621 0.059330 0
-0.078701 0.058821 0
-0.086656 0.057615 0
-0.094413 0.055727 0
-0.101897 0.053169 0
-0.109037 0.049951 0
-0.115759 0.046084 0
-0.121990 0.041581 0
-0.127659 0.036462 0
-0.132692 0.030754 0
-0.137018 0.024497 0
-0.140568 0.017741 0
-0.143274 0.010552 0
-0.145075 0.003009 0
-0.145913 -0.004790 0
-0.145739 -0.012736 0
-0.144514 -0.020699 0
-0.142210 -0.028541 0
-0.138818 -0.036107 0
-0.134341 -0.043237 0
-0.128808 -0.049763 0
-0.122268 -0.055520 0
-0.114796 -0.060348 0
-0.106494 -0.064099 0
-0.097491 -0.066647 0
-0.087941 -0.067893 0
-0.078022 -0.067773 0
-0.067931 -0.066267 0
-0.057878 -0.063399 0
-0.048081 -0.059248 0
-0.038755 -0.053942 0
-0.030105 -0.047663 0
-0.022316 -0.040639 0
-0.015548 -0.033142 0
-0.009924 -0.025477 0
-0.005532 -0.017978 0
-0.002418 -0.010995 0
-0.000586 -0.004883 0
0.000000 -0.000000 0
0.000000 0.000000 0
-0.000975 0.011578 0
-0.003601 0.022146 0
-0.007607 0.031597 0
-0.012754 0.039883 0
-0.018829 0.046997 0
-0.025650 0.052966 0
-0.033057 0.057835 0
-0.040911 0.061660 0
-0.049091 0.064500 0
-0.057490 0.066414 0
-0.066013 0.067452 0
-0.074573 0.067657 0
-0.083088 0.067063 0
-0.091483 0.065696 0
-0.099682 0.063574 0
-0.107614 0.060709 0
-0.115206 0.057110 0
-0.122386 0.052790 0
-0.129080 0.047760 0
-0.135214 0.042041 0
-0.140714 0.035660 0
-0.145506 0.028657 0
-0.149515 0.021085 0
-0.152668 0.013011 0
-0.154895 0.004520 0
-0.156131 -0.004286 0
-0.156316 -0.013287 0
-0.155400 -0.022345 0
-0.153342 -0.031306 0
-0.150117 -0.040001 0
-0.145720 -0.048248 0
-0.140163 -0.055859 0
-0.133485 -0.062643 0
-0.125754 -0.068411 0
-0.117065 -0.072988 0
-0.107547 -0.076220 0
-0.097357 -0.077979 0
-0.086685 -0.078178 0
-0.075742 -0.076777 0
-0.064760 -0.073790 0
-0.053985 -0.069289 0
-0.043662 -0.063408 0
-0.034030 -0.056343 0
-0.025307 -0.048345 0
-0.017687 -0.039718 0
-0.011325 -0.030804 0
-0.006332 -0.021979 0
-0.002776 -0.013636 0
-0.000675 -0.006177 0
0.000000 -0.000000 0
0.000000 0.000000 0
-0.001029 0.013430 0
-0.003795 0.025555 0
-0.008011 0.036299 0
-0.013420 0.045643 0
-0.019799 0.053614 0
-0.026954 0.060262 0
-0.034716 0.065657 0
-0.042941 0.069875 0
-0.051503 0.072992 0
-0.060292 0.075081 0
-0.069211 0.076201 0
-0.078173 0.076405 0
-0.087096 0.075731 0
-0.095906 0.074209 0
-0.104529 0.071859 0
-0.112893 0.068693 0
-0.120929 0.064723 0
-0.128562 0.059957 0
-0.135722 0.054409 0
-0.142333 0.048096 0
-0.148319 0.041046 0
-0.153604 0.033297 0
-0.158108 0.024903 0
-0.161753 0.015932 0
-0.164461 0.006473 0
-0.166159 -0.003369 0
-0.166774 -0.013467 0
-0.166244 -0.023674 0
-0.164514 -0.033823 0
-0.161545 -0.043729 0
-0.157314 -0.053191 0
-0.151819 -0.061997 0
-0.145086 -0.069929 0
-0.137168 -0.076768 0
-0.128154 -0.082306 0
-0.118166 -0.086355 0
-0.107367 -0.088755 0
-0.095950 -0.089389 0
-0.084145 -0.088191 0
-0.072205 -0.085156 0
-0.060404 -0.080346 0
-0.049022 -0.073898 0
-0.038334 -0.066018 0
-0.028600 -0.056982 0
-0.020051 -0.047125 0
-0.012877 -0.036832 0
-0.007222 -0.026526 0
-0.003176 -0.016651 0
-0.000776 -0.007660 0
0.000000 -0.000000 0
0.000000 0.000000 0
-0.001076 0.015373 0
-0.003965 0.029128 0
-0.008364 0.041222 0
-0.014004 0.051671 0
-0.020651 0.060531 0
-0.028101 0.067883 0
-0.036179 0.073822 0
-0.044735 0.078447 0
-0.053639 0.081851 0
-0.062779 0.084122 0
-0.072056 0.085333 0
-0.081384 0.085542 0
-0.090682 0.084797 0
-0.099877 0.083129 0
-0.108897 0.080561 0
-0.117672 0.077108 0
-0.126133 0.072779 0
-0.134210 0.067583 0
-0.141831 0.061531 0
-0.148921 0.054638 0
-0.155405 0.046931 0
-0.161202 0.038445 0
-0.166230 0.029234 0
-0.170406 0.019365 0
-0.173645 0.008926 0
-0.175862 -0.001973 0
-0.176977 -0.013202 0
-0.176911 -0.024605 0
-0.175596 -0.036005 0
-0.172974 -0.047201 0
-0.169006 -0.057974 0
-0.163672 -0.068087 0
-0.156977 -0.077294 0
-0.148963 -0.085343 0
-0.139702 -0.091990 0
-0.129312 -0.097007 0
-0.117950 -0.100195 0
-0.105817 -0.101400 0
-0.093154 -0.100522 0
-0.080239 -0.097531 0
-0.067373 -0.092472 0
-0.054873 -0.085478 0
-0.043058 -0.076765 0
-0.032231 -0.066629 0
-0.022668 -0.055441 0
-0.014603 -0.043633 0
-0.008215 -0.031680 0
-0.003624 -0.020082 0
-0.000889 -0.009353 0
0.000000 -0.000000 0
0.000000 0.000000 0
-0.001115 0.017395 0
-0.004108 0.032843 0
-0.008663 0.046338 0
-0.014500 0.057931 0
-0.021377 0.067711 0
-0.029081 0.075790 0
-0.037431 0.082290 0
-0.046273 0.087334 0
-0.055474 0.091036 0
-0.064921 0.093498 0
-0.074514 0.094807 0
-0.084167 0.095031 0
-0.093800 0.094224 0
-0.103343 0.092423 0
-0.112725 0.089653 0
-0.121880 0.085930 0
-0.130741 0.081261 0
-0.139241 0.075655 0
-0.147308 0.069120 0
-0.154870 0.061670 0
-0.161851 0.053326 0
-0.168169 0.044122 0
-0.173740 0.034107 0
-0.178477 0.023347 0
-0.182286 0.011930 0
-0.185076 -0.000037 0
-0.186754 -0.012419 0
-0.187228 -0.025055 0
-0.186414 -0.037760 0
-0.184236 -0.050319 0
-0.180635 -0.062494 0
-0.175569 -0.074026 0
-0.169025 -0.084638 0
-0.161020 -0.094043 0
-0.151614 -0.101957 0
-0.140909 -0.108107 0
-0.129055 -0.112250 0
-0.116255 -0.114185 0
-0.102761 -0.113769 0
-0.088868 -0.110937 0
-0.074910 -0.105712 0
-0.061243 -0.098213 0
-0.048232 -0.088660 0
-0.036231 -0.077371 0
-0.025568 -0.064753 0
-0.016524 -0.051286 0
-0.009326 -0.037505 0
-0.004129 -0.023977 0
-0.001017 -0.011284 0
0.000000 -0.000000 0
0.000000 0.000000 0
-0.001146 0.019481 0
-0.004223 0.036676 0
-0.008905 0.051615 0
-0.014903 0.064385 0
-0.021968 0.075111 0
-0.029881 0.083938 0
-0.038457 0.091015 0
-0.047538 0.096490 0
-0.056988 0.100499 0
-0.066692 0.103162 0
-0.076552 0.104578 0
-0.086481 0.104829 0
-0.096403 0.103973 0
-0.106248 0.102053 0