# vtk DataFile Version 2.0
generated by CFD-lab course output (written by Tobias Neckel) 
ASCII

DATASET STRUCTURED_GRID
DIMENSIONS  51 51 1 
POINTS 2601 float

0.000000 0.000000 0
0.020000 0.000000 0
0.040000 0.000000 0
0.060000 0.000000 0
0.080000 0.000000 0
0.100000 0.000000 0
0.120000 0.000000 0
0.140000 0.000000 0
0.160000 0.000000 0
0.180000 0.000000 0
0.200000 0.000000 0
0.220000 0.000000 0
0.240000 0.000000 0
0.260000 0.000000 0
0.280000 0.000000 0
0.300000 0.000000 0
0.320000 0.000000 0
0.340000 0.000000 0
0.360000 0.000000 0
0.380000 0.000000 0
0.400000 0.000000 0
0.420000 0.000000 0
0.440000 0.000000 0
0.460000 0.000000 0
0.480000 0.000000 0
0.500000 0.000000 0
0.520000 0.000000 0
0.540000 0.000000 0
0.560000 0.000000 0
0.580000 0.000000 0
0.600000 0.000000 0
0.620000 0.000000 0
0.640000 0.000000 0
0.660000 0.000000 0
0.680000 0.000000 0
0.700000 0.000000 0
0.720000 0.000000 0
0.740000 0.000000 0
0.760000 0.000000 0
0.780000 0.000000 0
0.800000 0.000000 0
0.820000 0.000000 0
0.840000 0.000000 0
0.860000 0.000000 0
0.880000 0.000000 0
0.900000 0.000000 0
0.920000 0.000000 0
0.940000 0.000000 0
0.960000 0.000000 0
0.980000 0.000000 0
1.000000 0.000000 0
0.000000 0.020000 0
0.020000 0.020000 0
0.040000 0.020000 0
0.060000 0.020000 0
0.080000 0.020000 0
0.100000 0.020000 0
0.120000 0.020000 0
0.140000 0.020000 0
0.160000 0.020000 0
0.180000 0.020000 0
0.200000 0.020000 0
0.220000 0.020000 0
0.240000 0.020000 0
0.260000 0.020000 0
0.280000 0.020000 0
0.300000 0.020000 0
0.320000 0.020000 0
0.340000 0.020000 0
0.360000 0.020000 0
0.380000 0.020000 0
0.400000 0.020000 0
0.420000 0.020000 0
0.440000 0.020000 0
0.460000 0.020000 0
0.480000 0.020000 0
0.500000 0.020000 0
0.520000 0.020000 0
0.540000 0.020000 0
0.560000 0.020000 0
0.580000 0.020000 0
0.600000 0.020000 0
0.620000 0.020000 0
0.640000 0.020000 0
0.660000 0.020000 0
0.680000 0.020000 0
0.700000 0.020000 0
0.720000 0.020000 0
0.740000 0.020000 0
0.760000 0.020000 0
0.780000 0.020000 0
0.800000 0.020000 0
0.820000 0.020000 0
0.840000 0.020000 0
0.860000 0.020000 0
0.880000 0.020000 0
0.900000 0.020000 0
0.920000 0.020000 0
0.940000 0.020000 0
0.960000 0.020000 0
0.980000 0.020000 0
1.000000 0.020000 0
0.000000 0.040000 0
0.020000 0.040000 0
0.040000 0.040000 0
0.060000 0.040000 0
0.080000 0.040000 0
0.100000 0.040000 0
0.120000 0.040000 0
0.140000 0.040000 0
0.160000 0.040000 0
0.180000 0.040000 0
0.200000 0.040000 0
0.220000 0.040000 0
0.240000 0.040000 0
0.260000 0.040000 0
0.280000 0.040000 0
0.300000 0.040000 0
0.320000 0.040000 0
0.340000 0.040000 0
0.360000 0.040000 0
0.380000 0.040000 0
0.400000 0.040000 0
0.420000 0.040000 0
0.440000 0.040000 0
0.460000 0.040000 0
0.480000 0.040000 0
0.500000 0.040000 0
0.520000 0.040000 0
0.540000 0.040000 0
0.560000 0.040000 0
0.580000 0.040000 0
0.600000 0.040000 0
0.620000 0.040000 0
0.640000 0.040000 0
0.660000 0.040000 0
0.680000 0.040000 0
0.700000 0.040000 0
0.720000 0.040000 0
0.740000 0.040000 0
0.760000 0.040000 0
0.780000 0.040000 0
0.800000 0.040000 0
0.820000 0.040000 0
0.840000 0.040000 0
0.860000 0.040000 0
0.880000 0.040000 0
0.900000 0.040000 0
0.920000 0.040000 0
0.940000 0.040000 0
0.960000 0.040000 0
0.980000 0.040000 0
1.000000 0.040000 0
0.000000 0.060000 0
0.020000 0.060000 0
0.040000 0.060000 0
0.060000 0.060000 0
0.080000 0.060000 0
0.100000 0.060000 0
0.120000 0.060000 0
0.140000 0.060000 0
0.160000 0.060000 0
0.180000 0.060000 0
0.200000 0.060000 0
0.220000 0.060000 0
0.240000 0.060000 0
0.260000 0.060000 0
0.280000 0.060000 0
0.300000 0.060000 0
0.320000 0.060000 0
0.340000 0.060000 0
0.360000 0.060000 0
0.380000 0.060000 0
0.400000 0.060000 0
0.420000 0.060000 0
0.440000 0.060000 0
0.460000 0.060000 0
0.480000 0.060000 0
0.500000 0.060000 0
0.520000 0.060000 0
0.540000 0.060000 0
0.560000 0.060000 0
0.580000 0.060000 0
0.600000 0.060000 0
0.620000 0.060000 0
0.640000 0.060000 0
0.660000 0.060000 0
0.680000 0.060000 0
0.700000 0.060000 0
0.720000 0.060000 0
0.740000 0.060000 0
0.760000 0.060000 0
0.780000 0.060000 0
0.800000 0.060000 0
0.820000 0.060000 0
0.840000 0.060000 0
0.860000 0.060000 0
0.880000 0.060000 0
0.900000 0.060000 0
0.920000 0.060000 0
0.940000 0.060000 0
0.960000 0.060000 0
0.980000 0.060000 0
1.000000 0.060000 0
0.000000 0.080000 0
0.020000 0.080000 0
0.040000 0.080000 0
0.060000 0.080000 0
0.080000 0.080000 0
0.100000 0.080000 0
0.120000 0.080000 0
0.140000 0.080000 0
0.160000 0.080000 0
0.180000 0.080000 0
0.200000 0.080000 0
0.220000 0.080000 0
0.240000 0.080000 0
0.260000 0.080000 0
0.280000 0.080000 0
0.300000 0.080000 0
0.320000 0.080000 0
0.340000 0.080000 0
0.360000 0.080000 0
0.380000 0.080000 0
0.400000 0.080000 0
0.420000 0.080000 0
0.440000 0.080000 0
0.460000 0.080000 0
0.480000 0.080000 0
0.500000 0.080000 0
0.520000 0.080000 0
0.540000 0.080000 0
0.560000 0.080000 0
0.580000 0.080000 0
0.600000 0.080000 0
0.620000 0.080000 0
0.640000 0.080000 0
0.660000 0.080000 0
0.680000 0.080000 0
0.700000 0.080000 0
0.720000 0.080000 0
0.740000 0.080000 0
0.760000 0.080000 0
0.780000 0.080000 0
0.800000 0.080000 0
0.820000 0.080000 0
0.840000 0.080000 0
0.860000 0.080000 0
0.880000 0.080000 0
0.900000 0.080000 0
0.920000 0.080000 0
0.940000 0.080000 0
0.960000 0.080000 0
0.980000 0.080000 0
1.000000 0.080000 0
0.000000 0.100000 0
0.020000 0.100000 0
0.040000 0.100000 0
0.060000 0.100000 0
0.080000 0.100000 0
0.100000 0.100000 0
0.120000 0.100000 0
0.140000 0.100000 0
0.160000 0.100000 0
0.180000 0.100000 0
0.200000 0.100000 0
0.220000 0.100000 0
0.240000 0.100000 0
0.260000 0.100000 0
0.280000 0.100000 0
0.300000 0.100000 0
0.320000 0.100000 0
0.340000 0.100000 0
0.360000 0.100000 0
0.380000 0.100000 0
0.400000 0.100000 0
0.420000 0.100000 0
0.440000 0.100000 0
0.460000 0.100000 0
0.480000 0.100000 0
0.500000 0.100000 0
0.520000 0.100000 0
0.540000 0.100000 0
0.560000 0.100000 0
0.580000 0.100000 0
0.600000 0.100000 0
0.620000 0.100000 0
0.640000 0.100000 0
0.660000 0.100000 0
0.680000 0.100000 0
0.700000 0.100000 0
0.720000 0.100000 0
0.740000 0.100000 0
0.760000 0.100000 0
0.780000 0.100000 0
0.800000 0.100000 0
0.820000 0.100000 0
0.840000 0.100000 0
0.860000 0.100000 0
0.880000 0.100000 0
0.900000 0.100000 0
0.920000 0.100000 0
0.940000 0.100000 0
0.960000 0.100000 0
0.980000 0.100000 0
1.000000 0.100000 0
0.000000 0.120000 0
0.020000 0.120000 0
0.040000 0.120000 0
0.060000 0.120000 0
0.080000 0.120000 0
0.100000 0.120000 0
0.120000 0.120000 0
0.140000 0.120000 0
0.160000 0.120000 0
0.180000 0.120000 0
0.200000 0.120000 0
0.220000 0.120000 0
0.240000 0.120000 0
0.260000 0.120000 0
0.280000 0.120000 0
0.300000 0.120000 0
0.320000 0.120000 0
0.340000 0.120000 0
0.360000 0.120000 0
0.380000 0.120000 0
0.400000 0.120000 0
0.420000 0.120000 0
0.440000 0.120000 0
0.460000 0.120000 0
0.480000 0.120000 0
0.500000 0.120000 0
0.520000 0.120000 0
0.540000 0.120000 0
0.560000 0.120000 0
0.580000 0.120000 0
0.600000 0.120000 0
0.620000 0.120000 0
0.640000 0.120000 0
0.660000 0.120000 0
0.680000 0.120000 0
0.700000 0.120000 0
0.720000 0.120000 0
0.740000 0.120000 0
0.760000 0.120000 0
0.780000 0.120000 0
0.800000 0.120000 0
0.820000 0.120000 0
0.840000 0.120000 0
0.860000 0.120000 0
0.880000 0.120000 0
0.900000 0.120000 0
0.920000 0.120000 0
0.940000 0.120000 0
0.960000 0.120000 0
0.980000 0.120000 0
1.000000 0.120000 0
0.000000 0.140000 0
0.020000 0.140000 0
0.040000 0.140000 0
0.060000 0.140000 0
0.080000 0.140000 0
0.100000 0.140000 0
0.120000 0.140000 0
0.140000 0.140000 0
0.160000 0.140000 0
0.180000 0.140000 0
0.200000 0.140000 0
0.220000 0.140000 0
0.240000 0.140000 0
0.260000 0.140000 0
0.280000 0.140000 0
0.300000 0.140000 0
0.320000 0.140000 0
0.340000 0.140000 0
0.360000 0.140000 0
0.380000 0.140000 0
0.400000 0.140000 0
0.420000 0.140000 0
0.440000 0.140000 0
0.460000 0.140000 0
0.480000 0.140000 0
0.500000 0.140000 0
0.520000 0.140000 0
0.540000 0.140000 0
0.560000 0.140000 0
0.580000 0.140000 0
0.600000 0.140000 0
0.620000 0.140000 0
0.640000 0.140000 0
0.660000 0.140000 0
0.680000 0.140000 0
0.700000 0.140000 0
0.720000 0.140000 0
0.740000 0.140000 0
0.760000 0.140000 0
0.780000 0.140000 0
0.800000 0.140000 0
0.820000 0.140000 0
0.840000 0.140000 0
0.860000 0.140000 0
0.880000 0.140000 0
0.900000 0.140000 0
0.920000 0.140000 0
0.940000 0.140000 0
0.960000 0.140000 0
0.980000 0.140000 0
1.000000 0.140000 0
0.000000 0.160000 0
0.020000 0.160000 0
0.040000 0.160000 0
0.060000 0.160000 0
0.080000 0.160000 0
0.100000 0.160000 0
0.120000 0.160000 0
0.140000 0.160000 0
0.160000 0.160000 0
0.180000 0.160000 0
0.200000 0.160000 0
0.220000 0.160000 0
0.240000 0.160000 0
0.260000 0.160000 0
0.280000 0.160000 0
0.300000 0.160000 0
0.320000 0.160000 0
0.340000 0.160000 0
0.360000 0.160000 0
0.380000 0.160000 0
0.400000 0.160000 0
0.420000 0.160000 0
0.440000 0.160000 0
0.460000 0.160000 0
0.480000 0.160000 0
0.500000 0.160000 0
0.520000 0.160000 0
0.540000 0.160000 0
0.560000 0.160000 0
0.580000 0.160000 0
0.600000 0.160000 0
0.620000 0.160000 0
0.640000 0.160000 0
0.660000 0.160000 0
0.680000 0.160000 0
0.700000 0.160000 0
0.720000 0.160000 0
0.740000 0.160000 0
0.760000 0.160000 0
0.780000 0.160000 0
0.800000 0.160000 0
0.820000 0.160000 0
0.840000 0.160000 0
0.860000 0.160000 0
0.880000 0.160000 0
0.900000 0.160000 0
0.920000 0.160000 0
0.940000 0.160000 0
0.960000 0.160000 0
0.980000 0.160000 0
1.000000 0.160000 0
0.000000 0.180000 0
0.020000 0.180000 0
0.040000 0.180000 0
0.060000 0.180000 0
0.080000 0.180000 0
0.100000 0.180000 0
0.120000 0.180000 0
0.140000 0.180000 0
0.160000 0.180000 0
0.180000 0.180000 0
0.200000 0.180000 0
0.220000 0.180000 0
0.240000 0.180000 0
0.260000 0.180000 0
0.280000 0.180000 0
0.300000 0.180000 0
0.320000 0.180000 0
0.340000 0.180000 0
0.360000 0.180000 0
0.380000 0.180000 0
0.400000 0.180000 0
0.420000 0.180000 0
0.440000 0.180000 0
0.460000 0.180000 0
0.480000 0.180000 0
0.500000 0.180000 0
0.520000 0.180000 0
0.540000 0.180000 0
0.560000 0.180000 0
0.580000 0.180000 0
0.600000 0.180000 0
0.620000 0.180000 0
[...]
POINT_DATA 2601 

VECTORS velocity float
0.000000 0.000000 0
-0.000000 0.000000 0
-0.000000 0.000000 0
-0.000000 0.000000 0
0.000000 0.000000 0
0.000000 0.000000 0
0.000000 0.000000 0
0.000000 0.000000 0
-0.000000 0.000000 0
-0.000000 0.000000 0
-0.000000 0.000000 0
-0.000000 0.000000 0
-0.000000 0.000000 0
0.000000 0.000000 0
0.000000 0.000000 0
-0.000000 0.000000 0
-0.000000 0.000000 0
-0.000000 0.000000 0
-0.000000 0.000000 0
-0.000000 0.000000 0
-0.000000 0.000000 0
0.000000 0.000000 0
0.000000 0.000000 0
-0.000000 0.000000 0
-0.000000 0.000000 0
-0.000000 0.000000 0
-0.000000 0.000000 0
-0.000000 0.000000 0
-0.000000 0.000000 0
-0.000000 0.000000 0
-0.000000 0.000000 0
-0.000000 0.000000 0
-0.000000 0.000000 0
0.000000 0.000000 0
0.000000 0.000000 0
-0.000000 0.000000 0
-0.000000 0.000000 0
-0.000000 0.000000 0
-0.000000 0.000000 0
-0.000000 0.000000 0
-0.000000 0.000000 0
-0.000000 0.000000 0
-0.000000 0.000000 0
0.000000 0.000000 0
0.000000 0.000000 0
0.000000 0.000000 0
0.000000 0.000000 0
0.000000 0.000000 0
0.000000 0.000000 0
0.000000 0.000000 0
0.000000 0.000000 0
0.000000 -0.000000 0
0.000059 -0.000059 0
0.000079 -0.000022 0
-0.000016 0.000055 0
-0.000256 0.000143 0
-0.000643 0.000227 0
-0.001165 0.000299 0
-0.001803 0.000360 0
-0.002538 0.000408 0
-0.003349 0.000445 0
-0.004218 0.000471 0
-0.005126 0.000488 0
-0.006058 0.000498 0
-0.006999 0.000499 0
-0.007935 0.000493 0
-0.008854 0.000481 0
-0.009742 0.000463 0
-0.010587 0.000438 0
-0.011377 0.000406 0
-0.012099 0.000368 0
-0.012742 0.000323 0
-0.013293 0.000272 0
-0.013740 0.000214 0
-0.014073 0.000151 0
-0.014282 0.000082 0
-0.014359 0.000009 0
-0.014297 -0.000067 0
-0.014093 -0.000145 0
-0.013747 -0.000222 0
-0.013259 -0.000297 0
-0.012637 -0.000369 0
-0.011889 -0.000434 0
-0.011030 -0.000491 0
-0.010075 -0.000538 0
-0.009046 -0.000573 0
-0.007965 -0.000595 0
-0.006856 -0.000601 0
-0.005748 -0.000593 0
-0.004666 -0.000570 0
-0.003639 -0.000531 0
-0.002692 -0.000478 0
-0.001848 -0.000413 0
-0.001127 -0.000338 0
-0.000546 -0.000255 0
-0.000115 -0.000167 0
0.000164 -0.000080 0
0.000297 0.000000 0
0.000301 0.000065 0
0.000210 0.000099 0
0.000081 0.000081 0
0.000000 0.000000 0
0.000000 -0.000000 0
0.000023 -0.000080 0
-0.000076 0.000075 0
-0.000385 0.000336 0
-0.000940 0.000627 0
-0.001742 0.000908 0
-0.002776 0.001160 0
-0.004014 0.001373 0
-0.005421 0.001546 0
-0.006965 0.001680 0
-0.008613 0.001777 0
-0.010332 0.001840 0
-0.012093 0.001873 0
-0.013869 0.001877 0
-0.015634 0.001854 0
-0.017362 0.001806 0
-0.019030 0.001733 0
-0.020614 0.001635 0
-0.022091 0.001513 0
-0.023437 0.001365 0
-0.024631 0.001194 0
-0.025649 0.000998 0
-0.026471 0.000781 0
-0.027077 0.000542 0
-0.027451 0.000286 0
-0.027578 0.000015 0
-0.027448 -0.000266 0
-0.027056 -0.000551 0
-0.026400 -0.000835 0
-0.025487 -0.001110 0
-0.024327 -0.001370 0
-0.022939 -0.001607 0
-0.021347 -0.001814 0
-0.019581 -0.001984 0
-0.017678 -0.002111 0
-0.015678 -0.002190 0
-0.013628 -0.002217 0
-0.011573 -0.002190 0
-0.009563 -0.002109 0
-0.007646 -0.001975 0
-0.005867 -0.001791 0
-0.004268 -0.001564 0
-0.002883 -0.001302 0
-0.001741 -0.001013 0
-0.000859 -0.000711 0
-0.000241 -0.000412 0
0.000122 -0.000136 0
0.000261 0.000087 0
0.000227 0.000219 0
0.000101 0.000210 0
0.000000 0.000000 0
0.000000 -0.000000 0
-0.000057 0.000017 0
-0.000348 0.000386 0
-0.000942 0.000919 0
-0.001865 0.001500 0
-0.003113 0.002063 0
-0.004664 0.002570 0
-0.006481 0.003004 0
-0.008524 0.003360 0
-0.010748 0.003636 0
-0.013110 0.003838 0
-0.015567 0.003969 0
-0.018078 0.004035 0
-0.020606 0.004039 0
-0.023114 0.003986 0
-0.025565 0.003878 0
-0.027927 0.003715 0
-0.030166 0.003499 0
-0.032249 0.003230 0
-0.034142 0.002908 0
-0.035816 0.002535 0
-0.037239 0.002112 0
-0.038382 0.001642 0
-0.039221 0.001131 0
-0.039731 0.000583 0
-0.039894 0.000006 0
-0.039699 -0.000589 0
-0.039137 -0.001192 0
-0.038209 -0.001791 0
-0.036924 -0.002370 0
-0.035298 -0.002917 0
-0.033356 -0.003415 0
-0.031131 -0.003849 0
-0.028664 -0.004207 0
-0.026006 -0.004476 0
-0.023211 -0.004645 0
-0.020340 -0.004707 0
-0.017457 -0.004658 0
-0.014628 -0.004497 0
-0.011916 -0.004227 0
-0.009383 -0.003857 0
-0.007085 -0.003397 0
-0.005069 -0.002864 0
-0.003373 -0.002279 0
-0.002020 -0.001667 0
-0.001017 -0.001061 0
-0.000353 -0.000502 0
0.000005 -0.000040 0
0.000118 0.000258 0
0.000075 0.000308 0
0.000000 0.000000 0
0.000000 0.000000 0
-0.000152 0.000269 0
-0.000671 0.000961 0
-0.001590 0.001852 0
-0.002916 0.002798 0
-0.004631 0.003707 0
-0.006705 0.004528 0
-0.009094 0.005233 0
-0.011749 0.005813 0
-0.014617 0.006266 0
-0.017646 0.006595 0
-0.020786 0.006809 0
-0.023988 0.006912 0
-0.027203 0.006912 0
-0.030386 0.006814 0
-0.033494 0.006620 0
-0.036483 0.006334 0
-0.039311 0.005956 0
-0.041937 0.005489 0
-0.044321 0.004933 0
-0.046423 0.004290 0
-0.048206 0.003564 0
-0.049636 0.002762 0
-0.050680 0.001890 0
-0.051312 0.000959 0
-0.051510 -0.000017 0
-0.051259 -0.001023 0
-0.050551 -0.002040 0
-0.049388 -0.003047 0
-0.047781 -0.004021 0
-0.045749 -0.004938 0
-0.043323 -0.005774 0
-0.040544 -0.006505 0
-0.037463 -0.007109 0
-0.034138 -0.007564 0
-0.030638 -0.007856 0
-0.027034 -0.007971 0
-0.023405 -0.007903 0
-0.019830 -0.007650 0
-0.016385 -0.007219 0
-0.013147 -0.006622 0
-0.010183 -0.005878 0
-0.007551 -0.005013 0
-0.005297 -0.004062 0
-0.003452 -0.003067 0
-0.002028 -0.002078 0
-0.001014 -0.001159 0
-0.000379 -0.000385 0
-0.000062 0.000150 0
0.000024 0.000328 0
0.000000 0.000000 0
0.000000 0.000000 0
-0.000251 0.000689 0
-0.001011 0.001824 0
-0.002274 0.003163 0
-0.004020 0.004541 0
-0.006216 0.005852 0
-0.008817 0.007033 0
-0.011771 0.008048 0
-0.015021 0.008882 0
-0.018507 0.009534 0
-0.022170 0.010007 0
-0.025952 0.010310 0
-0.029797 0.010451 0
-0.033650 0.010438 0
-0.037457 0.010277 0
-0.041169 0.009974 0
-0.044733 0.009532 0
-0.048102 0.008953 0
-0.051226 0.008239 0
-0.054059 0.007394 0
-0.056555 0.006420 0
-0.058671 0.005325 0
-0.060366 0.004116 0
-0.061605 0.002807 0
-0.062357 0.001413 0
-0.062597 -0.000047 0
-0.062308 -0.001548 0
-0.061482 -0.003063 0
-0.060121 -0.004561 0
-0.058237 -0.006010 0
-0.055852 -0.007375 0
-0.053002 -0.008619 0
-0.049734 -0.009709 0
-0.046104 -0.010613 0
-0.042180 -0.011300 0
-0.038039 -0.011748 0
-0.033763 -0.011939 0
-0.029443 -0.011862 0
-0.025167 -0.011517 0
-0.021027 -0.010910 0
-0.017108 -0.010059 0
-0.013491 -0.008993 0
-0.010244 -0.007750 0
-0.007422 -0.006377 0
-0.005063 -0.004937 0
-0.003186 -0.003499 0
-0.001786 -0.002151 0
-0.000836 -0.000992 0
-0.000280 -0.000145 0
-0.000037 0.000246 0
0.000000 0.000000 0
0.000000 0.000000 0
-0.000349 0.001281 0
-0.001351 0.002983 0
-0.002963 0.004860 0
-0.005135 0.006739 0
-0.007815 0.008504 0
-0.010943 0.010083 0
-0.014455 0.011437 0
-0.018286 0.012549 0
-0.022369 0.013415 0
-0.026639 0.014041 0
-0.031032 0.014435 0
-0.035484 0.014609 0
-0.039936 0.014573 0
-0.044329 0.014333 0
-0.048605 0.013896 0
-0.052707 0.013267 0
-0.056581 0.012449 0
-0.060172 0.011446 0
-0.063427 0.010261 0
-0.066296 0.008901 0
-0.068730 0.007376 0
-0.070684 0.005696 0
-0.072119 0.003881 0
-0.072999 0.001951 0
-0.073299 -0.000066 0
-0.072997 -0.002138 0
-0.072086 -0.004227 0
-0.070566 -0.006293 0
-0.068449 -0.008290 0
-0.065761 -0.010173 0
-0.062539 -0.011893 0
-0.058834 -0.013404 0
-0.054707 -0.014662 0
-0.050234 -0.015629 0
-0.045497 -0.016272 0
-0.040590 -0.016567 0
-0.035610 -0.016499 0
-0.030659 -0.016066 0
-0.025839 -0.015278 0
-0.021247 -0.014158 0
-0.016975 -0.012743 0
-0.013101 -0.011083 0
-0.009693 -0.009243 0
-0.006796 -0.007302 0
-0.004439 -0.005355 0
-0.002624 -0.003509 0
-0.001332 -0.001891 0
-0.000514 -0.000649 0
-0.000102 0.000048 0
0.000000 0.000000 0
0.000000 0.000000 0
-0.000443 0.002040 0
-0.001683 0.004437 0
-0.003639 0.006946 0
-0.006235 0.009393 0
-0.009395 0.011660 0
-0.013043 0.013673 0
-0.017104 0.015391 0
-0.021502 0.016797 0
-0.026165 0.017887 0
-0.031019 0.018670 0
-0.035997 0.019155 0
-0.041029 0.019356 0
-0.046051 0.019283 0
-0.050999 0.018946 0
-0.055810 0.018353 0
-0.060424 0.017508 0
-0.064779 0.016418 0
-0.068817 0.015085 0
-0.072480 0.013518 0
-0.075713 0.011723 0
-0.078463 0.009713 0
-0.080681 0.007505 0
-0.082323 0.005122 0
-0.083351 0.002592 0
-0.083735 -0.000049 0
-0.083453 -0.002761 0
-0.082493 -0.005495 0
-0.080856 -0.008198 0
-0.078552 -0.010815 0
-0.075607 -0.013285 0
-0.072060 -0.015547 0
-0.067964 -0.017541 0
-0.063383 -0.019213 0
-0.058397 -0.020511 0
-0.053097 -0.021392 0
-0.047583 -0.021826 0
-0.041961 -0.021793 0
-0.036344 -0.021287 0
-0.030844 -0.020322 0
-0.025571 -0.018924 0
-0.020628 -0.017139 0
-0.016108 -0.015032 0
-0.012087 -0.012683 0
-0.008626 -0.010190 0
-0.005760 -0.007671 0
-0.003506 -0.005258 0
-0.001850 -0.003102 0
-0.000757 -0.001375 0
-0.000166 -0.000269 0
0.000000 0.000000 0
0.000000 0.000000 0
-0.000532 0.002963 0
-0.002002 0.006179 0
-0.004294 0.009413 0
-0.007305 0.012495 0
-0.010935 0.015312 0
-0.015093 0.017792 0
-0.019689 0.019896 0
-0.024640 0.021609 0
-0.029864 0.022932 0
-0.035283 0.023873 0
-0.040823 0.024445 0
-0.046412 0.024664 0
-0.051981 0.024543 0
-0.057461 0.024092 0
-0.062787 0.023321 0
-0.067894 0.022235 0
-0.072716 0.020842 0
-0.077190 0.019147 0
-0.081256 0.017157 0
-0.084854 0.014884 0
-0.087928 0.012343 0
-0.090424 0.009556 0
-0.092294 0.006551 0
-0.093497 0.003363 0
-0.094000 0.000036 0
-0.093776 -0.003379 0
-0.092811 -0.006824 0
-0.091102 -0.010234 0
-0.088658 -0.013538 0
-0.085504 -0.016664 0
-0.081677 -0.019536 0
-0.077231 -0.022081 0
-0.072233 -0.024228 0
-0.066766 -0.025915 0
-0.060925 -0.027087 0
-0.054817 -0.027703 0
-0.048558 -0.027738 0
-0.042271 -0.027183 0
-0.036079 -0.026051 0
-0.030106 -0.024374 0
-0.024467 -0.022206 0
-0.019270 -0.019624 0
-0.014606 -0.016725 0
-0.010546 -0.013629 0
-0.007143 -0.010475 0
-0.004422 -0.007419 0
-0.002384 -0.004640 0
-0.001003 -0.002332 0
-0.000231 -0.000708 0
0.000000 0.000000 0
0.000000 -0.000000 0
-0.000617 0.004042 0
-0.002307 0.008199 0
-0.004923 0.012249 0
-0.008334 0.016034 0
-0.012421 0.019448 0
-0.017073 0.022427 0
-0.022189 0.024938 0
-0.027675 0.026971 0
-0.033441 0.028530 0
-0.039406 0.029629 0
-0.045488 0.030285 0
-0.051614 0.030514 0
-0.057711 0.030332 0
-0.063706 0.029752 0
-0.069531 0.028784 0
-0.075118 0.027436 0
-0.080399 0.025714 0
-0.085308 0.023626 0
-0.089780 0.021182 0
-0.093753 0.018394 0
-0.097166 0.015282 0
-0.099962 0.011872 0
-0.102089 0.008196 0
-0.103503 0.004298 0
-0.104164 0.000229 0
-0.104043 -0.003950 0
-0.103121 -0.008169 0
-0.101391 -0.012351 0
-0.098858 -0.016413 0
-0.095544 -0.020266 0
-0.091483 -0.023820 0
-0.086728 -0.026986 0
-0.081347 -0.029678 0
-0.075425 -0.031819 0
-0.069060 -0.033341 0
-0.062367 -0.034192 0
-0.055469 -0.034339 0
-0.048499 -0.033767 0
-0.041595 -0.032487 0
-0.034892 -0.030536 0
-0.028524 -0.027975 0
-0.022612 -0.024894 0
-0.017264 -0.021406 0
-0.012570 -0.017653 0
-0.008594 -0.013795 0
-0.005379 -0.010017 0
-0.002937 -0.006522 0
-0.001255 -0.003528 0
-0.000296 -0.001272 0
0.000000 0.000000 0
0.000000 -0.000000 0
-0.000698 0.005270 0
-0.002596 0.010484 0
-0.005521 0.015440 0
-0.009316 0.019993 0
-0.013841 0.024051 0
-0.018969 0.027560 0
-0.024585 0.030498 0
-0.030586 0.032862 0
-0.036876 0.034663 0
-0.043365 0.035920 0
-0.049971 0.036654 0
-0.056615 0.036886 0
-0.063222 0.036634 0
-0.069718 0.035912 0
-0.076031 0.034733 0
-0.082091 0.033103 0
-0.087828 0.031032 0
-0.093174 0.028528 0
-0.098061 0.025602 0
-0.102423 0.022269 0
-0.106197 0.018552 0
-0.109322 0.014480 0
-0.111742 0.010092 0
-0.113407 0.005438 0
-0.114273 0.000576 0
-0.114306 -0.004422 0
-0.113481 -0.009476 0
-0.111785 -0.014497 0
-0.109219 -0.019386 0
-0.105797 -0.024040 0
-0.101551 -0.028352 0
-0.096531 -0.032217 0
-0.090802 -0.035532 0
-0.084451 -0.038202 0
-0.077579 -0.040145 0
-0.070305 -0.041294 0
-0.062762 -0.041605 0
-0.055093 -0.041058 0
-0.047448 -0.039658 0
-0.039981 -0.037445 0
-0.032841 -0.034486 0
-0.026169 -0.030883 0
-0.020091 -0.026767 0
-0.014717 -0.022299 0
-0.010129 -0.017665 0
-0.006386 -0.013077 0
-0.003515 -0.008764 0
-0.001516 -0.004973 0
-0.000361 -0.001963 0
0.000000 0.000000 0
0.000000 -0.000000 0
-0.000773 0.006638 0
-0.002869 0.013022 0
-0.006086 0.018969 0
-0.010246 0.024354 0
-0.015187 0.029101 0
-0.020769 0.033171 0
-0.026863 0.036555 0
-0.033356 0.039261 0
-0.040146 0.041309 0
-0.047139 0.042725 0
-0.054249 0.043535 0
-0.061393 0.043764 0
-0.068493 0.043434 0
-0.075476 0.042561 0
-0.082267 0.041157 0
-0.088795 0.039234 0
-0.094988 0.036798 0
-0.100777 0.033860 0
-0.106091 0.030431 0
-0.110862 0.026530 0
-0.115023 0.022181 0
-0.118509 0.017416 0
-0.121262 0.012281 0
-0.123224 0.006829 0
-0.124347 0.001129 0
-0.124590 -0.004741 0
-0.123921 -0.010690 0
-0.122320 -0.016613 0
-0.119780 -0.022401 0
-0.116309 -0.027933 0
-0.111933 -0.033086 0
-0.106695 -0.037735 0
-0.100659 -0.041758 0
-0.093909 -0.045042 0
-0.086547 -0.047487 0
-0.078699 -0.049010 0
-0.070503 -0.049551 0
-0.062115 -0.049080 0
-0.053700 -0.047599 0
-0.045429 -0.045143 0
-0.037469 -0.041787 0
-0.029985 -0.037643 0
-0.023125 -0.032858 0
-0.017018 -0.027615 0
-0.011771 -0.022126 0
-0.007459 -0.016632 0
-0.004128 -0.011391 0
-0.001791 -0.006681 0
-0.000430 -0.002788 0
0.000000 0.000000 0
0.000000 0.000000 0
-0.000844 0.008139 0
-0.003124 0.015798 0
-0.006616 0.022817 0
-0.011118 0.029094 0
-0.016451 0.034573 0
-0.022461 0.039236 0
-0.029007 0.043086 0
-0.035967 0.046146 0
-0.043233 0.048446 0
-0.050707 0.050022 0
-0.058297 0.050907 0
-0.065920 0.051130 0
-0.073498 0.050717 0
-0.080954 0.049686 0
-0.088213 0.048052 0
-0.095205 0.045825 0
-0.101855 0.043015 0
-0.108094 0.039631 0
-0.113848 0.035687 0
-0.119048 0.031201 0
-0.123624 0.026199 0
-0.127507 0.020719 0
-0.130634 0.014807 0
-0.132943 0.008523 0
-0.134378 0.001942 0
-0.134891 -0.004848 0
-0.134442 -0.011746 0
-0.133003 -0.018638 0
-0.130556 -0.025396 0
-0.127101 -0.031887 0
-0.122655 -0.037966 0
-0.117255 -0.043491 0
-0.110957 -0.048319 0
-0.103843 -0.052314 0
-0.096016 -0.055355 0
-0.087603 -0.057338 0
-0.078752 -0.058188 0
-0.069628 -0.057860 0
-0.060412 -0.056345 0
-0.051293 -0.053676 0
-0.042463 -0.049930 0
-0.034109 -0.045228 0
-0.026406 -0.039734 0
-0.019508 -0.033653 0
-0.013546 -0.027225 0
-0.008618 -0.020720 0
-0.004788 -0.014432 0
-0.002086 -0.008671 0
-0.000504 -0.003754 0
0.000000 0.000000 0
0.000000 0.000000 0
-0.000909 0.009762 0
-0.003360 0.018794 0
-0.007106 0.026962 0
-0.011926 0.034189 0
-0.017625 0.040443 0
-0.024034 0.045727 0
-0.031003 0.050062 0
-0.038402 0.053488 0
-0.046116 0.056049 0
-0.054043 0.057788 0
-0.062090 0.058748 0
-0.070170 0.058965 0
-0.078206 0.058467 0
-0.086119 0.057277 0
-0.093836 0.055409 0
-0.101285 0.052876 0
-0.108392 0.049687 0
-0.115086 0.045852 0
-0.121293 0.041385 0
-0.126942 0.036305 0
-0.131960 0.030640 0
-0.136276 0.024427 0
-0.139820 0.017716 0
-0.142526 0.010573 0
-0.144330 0.003077 0
-0.145176 -0.004677 0
-0.145015 -0.012578 0
-0.143808 -0.020500 0
-0.141526 -0.028303 0
-0.138160 -0.035834 0
-0.133713 -0.042932 0
-0.128214 -0.049433 0
-0.121711 -0.055169 0
-0.114279 -0.059983 0
-0.106020 -0.063727 0
-0.097061 -0.066274 0
-0.087557 -0.067526 0
-0.077684 -0.067420 0
-0.067639 -0.065933 0
-0.057631 -0.063092 0
-0.047878 -0.058971 0
-0.038593 -0.053701 0
-0.029980 -0.047459 0
-0.022224 -0.040475 0
-0.015484 -0.033017 0
-0.009884 -0.025389 0
-0.005510 -0.017923 0
-0.002409 -0.010966 0
-0.000584 -0.004874 0
0.000000 -0.000000 0
0.000000 0.000000 0
-0.000968 0.011499 0
-0.003576 0.021995 0
-0.007554 0.031382 0
-0.012665 0.039613 0
-0.018700 0.046681 0
-0.025477 0.052614 0
-0.032836 0.057454 0
-0.040642 0.061259 0
-0.048773 0.064087 0
-0.057123 0.065995 0
-0.065598 0.067034 0
-0.074111 0.067246 0
-0.082581 0.066666 0
-0.090934 0.065317 0
-0.099094 0.063218 0
-0.106990 0.060381 0
-0.114550 0.056816 0
-0.121702 0.052532 0
-0.128371 0.047543 0
-0.134486 0.041867 0
-0.139971 0.035533 0
-0.144751 0.028579 0
-0.148754 0.021056 0
-0.151905 0.013033 0
-0.154136 0.004593 0
-0.155379 -0.004163 0
-0.155576 -0.013115 0
-0.154676 -0.022127 0
-0.152639 -0.031044 0
-0.149439 -0.039700 0
-0.145070 -0.047912 0
-0.139546 -0.055494 0
-0.132904 -0.062254 0
-0.125212 -0.068005 0
-0.116566 -0.072572 0
-0.107092 -0.075801 0
-0.096948 -0.077566 0
-0.086323 -0.077778 0
-0.075427 -0.076397 0
-0.064493 -0.073437 0
-0.053764 -0.068969 0
-0.043484 -0.063126 0
-0.033891 -0.056103 0
-0.025205 -0.048149 0
-0.017616 -0.039565 0
-0.011279 -0.030694 0
-0.006307 -0.021907 0
-0.002765 -0.013597 0
-0.000673 -0.006163 0
0.000000 -0.000000 0
0.000000 0.000000 0
-0.001022 0.013338 0
-0.003769 0.025380 0
-0.007957 0.036052 0
-0.013330 0.045335 0
-0.019668 0.053255 0
-0.026778 0.059863 0
-0.034492 0.065228 0
-0.042668 0.069425 0
-0.051181 0.072530 0
-0.059921 0.074613 0
-0.068792 0.075736 0
-0.077706 0.075949 0
-0.086585 0.075290 0
-0.095353 0.073789 0
-0.103937 0.071465 0
-0.112266 0.068332 0
-0.120270 0.064398 0
-0.127876 0.059673 0
-0.135012 0.054170 0
-0.141603 0.047905 0
-0.147574 0.040906 0
-0.152847 0.033210 0
-0.157345 0.024870 0
-0.160988 0.015955 0
-0.163698 0.006551 0
-0.165402 -0.003237 0
-0.166028 -0.013282 0
-0.165512 -0.023438 0
-0.163802 -0.033540 0
-0.160856 -0.043402 0
-0.156651 -0.052826 0
-0.151187 -0.061598 0
-0.144488 -0.069503 0
-0.136608 -0.076322 0
-0.127634 -0.081847 0
-0.117691 -0.085891 0
-0.106937 -0.088295 0
-0.095568 -0.088941 0
-0.083811 -0.087763 0
-0.071919 -0.084755 0
-0.060166 -0.079981 0
-0.048829 -0.073573 0
-0.038183 -0.065739 0
-0.028488 -0.056750 0
-0.019972 -0.046942 0
-0.012826 -0.036698 0
-0.007193 -0.026436 0
-0.003163 -0.016600 0
-0.000773 -0.007639 0
0.000000 -0.000000 0
0.000000 0.000000 0
-0.001068 0.015268 0
-0.003939 0.028929 0
-0.008309 0.040943 0
-0.013914 0.051325 0
-0.020520 0.060129 0
-0.027925 0.067438 0
-0.035956 0.073345 0
-0.044463 0.077947 0
-0.053317 0.081339 0
-0.062408 0.083606 0
-0.071638 0.084820 0
-0.080920 0.085041 0
-0.090175 0.084313 0
-0.099328 0.082669 0
-0.108310 0.080131 0
-0.117051 0.076713 0
-0.125481 0.072425 0
-0.133531 0.067274 0
-0.141129 0.061270 0
-0.148200 0.054430 0
-0.154668 0.046778 0
-0.160454 0.038350 0
-0.165476 0.029197 0
-0.169649 0.019387 0
-0.172889 0.009008 0
-0.175112 -0.001833 0
-0.176236 -0.013004 0
-0.176183 -0.024353 0
-0.174884 -0.035701 0
-0.172284 -0.046850 0
-0.168340 -0.057581 0
-0.163033 -0.067657 0
-0.156371 -0.076833 0
-0.148392 -0.084858 0
-0.139170 -0.091489 0
-0.128822 -0.096499 0
-0.117504 -0.099689 0
-0.105418 -0.100904 0
-0.092804 -0.100046 0
-0.079937 -0.097082 0
-0.067119 -0.092060 0
-0.054666 -0.085109 0
-0.042895 -0.076444 0
-0.032109 -0.066360 0
-0.022582 -0.055227 0
-0.014547 -0.043473 0
-0.008183 -0.031569 0
-0.003610 -0.020017 0
-0.000885 -0.009326 0
0.000000 -0.000000 0
0.000000 0.000000 0
-0.001108 0.017276 0
-0.004082 0.032621 0
-0.008609 0.046027 0
-0.014411 0.057546 0
-0.021247 0.067266 0
-0.028907 0.075299 0
-0.037211 0.081765 0
-0.046005 0.086786 0
-0.055158 0.090475 0
-0.064557 0.092934 0
-0.074104 0.094248 0
-0.083712 0.094485 0
-0.093303 0.093699 0
-0.102806 0.091925 0
-0.112152 0.089188 0
-0.121274 0.085502 0
-0.130106 0.080878 0
-0.138579 0.075321 0
-0.146624 0.068839 0
-0.154169 0.061445 0
-0.161135 0.053160 0
-0.167443 0.044017 0
-0.173007 0.034065 0
-0.177740 0.023369 0
-0.181550 0.012014 0
-0.184344 0.000110 0
-0.186029 -0.012211 0
-0.186514 -0.024789 0
-0.185715 -0.037439 0
-0.183556 -0.049947 0
-0.179976 -0.062076 0
-0.174935 -0.073567 0
-0.168419 -0.084144 0
-0.160448 -0.093522 0
-0.151077 -0.101417 0
-0.140411 -0.107557 0
-0.128600 -0.111699 0
-0.115845 -0.113642 0
-0.102397 -0.113244 0
-0.088553 -0.110440 0
-0.074644 -0.105252 0
-0.061025 -0.097797 0
-0.048059 -0.088296 0
-0.036100 -0.077063 0
-0.025475 -0.064504 0
-0.016464 -0.051097 0
-0.009291 -0.037373 0
-0.004113 -0.023898 0
-0.001013 -0.011249 0
0.000000 -0.000000 0
0.000000 0.000000 0
-0.001140 0.019350 0
-0.004198 0.036431 0
-0.008852 0.051273 0
-0.014817 0.063963 0
-0.021843 0.074625 0
-0.029713 0.083402 0
-0.038245 0.090443 0
-0.047279 0.095894 0
-0.056682 0.099891 0
-0.066341 0.102552 0
-0.076156 0.103975 0
-0.086043 0.104240 0
-0.095925 0.103407 0
-0.105732 0.101517 0
-0.115399 0.098599 0