# vtk DataFile Version 2.0
generated by CFD-lab course output (written by Tobias Neckel) 
ASCII

DATASET STRUCTURED_GRID
DIMENSIONS  51 51 1 
POINTS 2601 float

0.000000 0.000000 0
0.020000 0.000000 0
0.040000 0.000000 0
0.060000 0.000000 0
0.080000 0.000000 0
0.100000 0.000000 0
0.120000 0.000000 0
0.140000 0.000000 0
0.160000 0.000000 0
0.180000 0.000000 0
0.200000 0.000000 0
0.220000 0.000000 0
0.240000 0.000000 0
0.260000 0.000000 0
0.280000 0.000000 0
0.300000 0.000000 0
0.320000 0.000000 0
0.340000 0.000000 0
0.360000 0.000000 0
0.380000 0.000000 0
0.400000 0.000000 0
0.420000 0.000000 0
0.440000 0.000000 0
0.460000 0.000000 0
0.480000 0.000000 0
0.500000 0.000000 0
0.520000 0.000000 0
0.540000 0.000000 0
0.560000 0.000000 0
0.580000 0.000000 0
0.600000 0.000000 0
0.620000 0.000000 0
0.640000 0.000000 0
0.660000 0.000000 0
0.680000 0.000000 0
0.700000 0.000000 0
0.720000 0.000000 0
0.740000 0.000000 0
0.760000 0.000000 0
0.780000 0.000000 0
0.800000 0.000000 0
0.820000 0.000000 0
0.840000 0.000000 0
0.860000 0.000000 0
0.880000 0.000000 0
0.900000 0.000000 0
0.920000 0.000000 0
0.940000 0.000000 0
0.960000 0.000000 0
0.980000 0.000000 0
1.000000 0.000000 0
0.000000 0.020000 0
0.020000 0.020000 0
0.040000 0.020000 0
0.060000 0.020000 0
0.080000 0.020000 0
0.100000 0.020000 0
0.120000 0.020000 0
0.140000 0.020000 0
0.160000 0.020000 0
0.180000 0.020000 0
0.200000 0.020000 0
0.220000 0.020000 0
0.240000 0.020000 0
0.260000 0.020000 0
0.280000 0.020000 0
0.300000 0.020000 0
0.320000 0.020000 0
0.340000 0.020000 0
0.360000 0.020000 0
0.380000 0.020000 0
0.400000 0.020000 0
0.420000 0.020000 0
0.440000 0.020000 0
0.460000 0.020000 0
0.480000 0.020000 0
0.500000 0.020000 0
0.520000 0.020000 0
0.540000 0.020000 0
0.560000 0.020000 0
0.580000 0.020000 0
0.600000 0.020000 0
0.620000 0.020000 0
0.640000 0.020000 0
0.660000 0.020000 0
0.680000 0.020000 0
0.700000 0.020000 0
0.720000 0.020000 0
0.740000 0.020000 0
0.760000 0.020000 0
0.780000 0.020000 0
0.800000 0.020000 0
0.820000 0.020000 0
0.840000 0.020000 0
0.860000 0.020000 0
0.880000 0.020000 0
0.900000 0.020000 0
0.920000 0.020000 0
0.940000 0.020000 0
0.960000 0.020000 0
0.980000 0.020000 0
1.000000 0.020000 0
0.000000 0.040000 0
0.020000 0.040000 0
0.040000 0.040000 0
0.060000 0.040000 0
0.080000 0.040000 0
0.100000 0.040000 0
0.120000 0.040000 0
0.140000 0.040000 0
0.160000 0.040000 0
0.180000 0.040000 0
0.200000 0.040000 0
0.220000 0.040000 0
0.240000 0.040000 0
0.260000 0.040000 0
0.280000 0.040000 0
0.300000 0.040000 0
0.320000 0.040000 0
0.340000 0.040000 0
0.360000 0.040000 0
0.380000 0.040000 0
0.400000 0.040000 0
0.420000 0.040000 0
0.440000 0.040000 0
0.460000 0.040000 0
0.480000 0.040000 0
0.500000 0.040000 0
0.520000 0.040000 0
0.540000 0.040000 0
0.560000 0.040000 0
0.580000 0.040000 0
0.600000 0.040000 0
0.620000 0.040000 0
0.640000 0.040000 0
0.660000 0.040000 0
0.680000 0.040000 0
0.700000 0.040000 0
0.720000 0.040000 0
0.740000 0.040000 0
0.760000 0.040000 0
0.780000 0.040000 0
0.800000 0.040000 0
0.820000 0.040000 0
0.840000 0.040000 0
0.860000 0.040000 0
0.880000 0.040000 0
0.900000 0.040000 0
0.920000 0.040000 0
0.940000 0.040000 0
0.960000 0.040000 0
0.980000 0.040000 0
1.000000 0.040000 0
0.000000 0.060000 0
0.020000 0.060000 0
0.040000 0.060000 0
0.060000 0.060000 0
0.080000 0.060000 0
0.100000 0.060000 0
0.120000 0.060000 0
0.140000 0.060000 0
0.160000 0.060000 0
0.180000 0.060000 0
0.200000 0.060000 0
0.220000 0.060000 0
0.240000 0.060000 0
0.260000 0.060000 0
0.280000 0.060000 0
0.300000 0.060000 0
0.320000 0.060000 0
0.340000 0.060000 0
0.360000 0.060000 0
0.380000 0.060000 0
0.400000 0.060000 0
0.420000 0.060000 0
0.440000 0.060000 0
0.460000 0.060000 0
0.480000 0.060000 0
0.500000 0.060000 0
0.520000 0.060000 0
0.540000 0.060000 0
0.560000 0.060000 0
0.580000 0.060000 0
0.600000 0.060000 0
0.620000 0.060000 0
0.640000 0.060000 0
0.660000 0.060000 0
0.680000 0.060000 0
0.700000 0.060000 0
0.720000 0.060000 0
0.740000 0.060000 0
0.760000 0.060000 0
0.780000 0.060000 0
0.800000 0.060000 0
0.820000 0.060000 0
0.840000 0.060000 0
0.860000 0.060000 0
0.880000 0.060000 0
0.900000 0.060000 0
0.920000 0.060000 0
0.940000 0.060000 0
0.960000 0.060000 0
0.980000 0.060000 0
1.000000 0.060000 0
0.000000 0.080000 0
0.020000 0.080000 0
0.040000 0.080000 0
0.060000 0.080000 0
0.080000 0.080000 0
0.100000 0.080000 0
0.120000 0.080000 0
0.140000 0.080000 0
0.160000 0.080000 0
0.180000 0.080000 0
0.200000 0.080000 0
0.220000 0.080000 0
0.240000 0.080000 0
0.260000 0.080000 0
0.280000 0.080000 0
0.300000 0.080000 0
0.320000 0.080000 0
0.340000 0.080000 0
0.360000 0.080000 0
0.380000 0.080000 0
0.400000 0.080000 0
0.420000 0.080000 0
0.440000 0.080000 0
0.460000 0.080000 0
0.480000 0.080000 0
0.500000 0.080000 0
0.520000 0.080000 0
0.540000 0.080000 0
0.560000 0.080000 0
0.580000 0.080000 0
0.600000 0.080000 0
0.620000 0.080000 0
0.640000 0.080000 0
0.660000 0.080000 0
0.680000 0.080000 0
0.700000 0.080000 0
0.720000 0.080000 0
0.740000 0.080000 0
0.760000 0.080000 0
0.780000 0.080000 0
0.800000 0.080000 0
0.820000 0.080000 0
0.840000 0.080000 0
0.860000 0.080000 0
0.880000 0.080000 0
0.900000 0.080000 0
0.920000 0.080000 0
0.940000 0.080000 0
0.960000 0.080000 0
0.980000 0.080000 0
1.000000 0.080000 0
0.000000 0.100000 0
0.020000 0.100000 0
0.040000 0.100000 0
0.060000 0.100000 0
0.080000 0.100000 0
0.100000 0.100000 0
0.120000 0.100000 0
0.140000 0.100000 0
0.160000 0.100000 0
0.180000 0.100000 0
0.200000 0.100000 0
0.220000 0.100000 0
0.240000 0.100000 0
0.260000 0.100000 0
0.280000 0.100000 0
0.300000 0.100000 0
0.320000 0.100000 0
0.340000 0.100000 0
0.360000 0.100000 0
0.380000 0.100000 0
0.400000 0.100000 0
0.420000 0.100000 0
0.440000 0.100000 0
0.460000 0.100000 0
0.480000 0.100000 0
0.500000 0.100000 0
0.520000 0.100000 0
0.540000 0.100000 0
0.560000 0.100000 0
0.580000 0.100000 0
0.600000 0.100000 0
0.620000 0.100000 0
0.640000 0.100000 0
0.660000 0.100000 0
0.680000 0.100000 0
0.700000 0.100000 0
0.720000 0.100000 0
0.740000 0.100000 0
0.760000 0.100000 0
0.780000 0.100000 0
0.800000 0.100000 0
0.820000 0.100000 0
0.840000 0.100000 0
0.860000 0.100000 0
0.880000 0.100000 0
0.900000 0.100000 0
0.920000 0.100000 0
0.940000 0.100000 0
0.960000 0.100000 0
0.980000 0.100000 0
1.000000 0.100000 0
0.000000 0.120000 0
0.020000 0.120000 0
0.040000 0.120000 0
0.060000 0.120000 0
0.080000 0.120000 0
0.100000 0.120000 0
0.120000 0.120000 0
0.140000 0.120000 0
0.160000 0.120000 0
0.180000 0.120000 0
0.200000 0.120000 0
0.220000 0.120000 0
0.240000 0.120000 0
0.260000 0.120000 0
0.280000 0.120000 0
0.300000 0.120000 0
0.320000 0.120000 0
0.340000 0.120000 0
0.360000 0.120000 0
0.380000 0.120000 0
0.400000 0.120000 0
0.420000 0.120000 0
0.440000 0.120000 0
0.460000 0.120000 0
0.480000 0.120000 0
0.500000 0.120000 0
0.520000 0.120000 0
0.540000 0.120000 0
0.560000 0.120000 0
0.580000 0.120000 0
0.600000 0.120000 0
0.620000 0.120000 0
0.640000 0.120000 0
0.660000 0.120000 0
0.680000 0.120000 0
0.700000 0.120000 0
0.720000 0.120000 0
0.740000 0.120000 0
0.760000 0.120000 0
0.780000 0.120000 0
0.800000 0.120000 0
0.820000 0.120000 0
0.840000 0.120000 0
0.860000 0.120000 0
0.880000 0.120000 0
0.900000 0.120000 0
0.920000 0.120000 0
0.940000 0.120000 0
0.960000 0.120000 0
0.980000 0.120000 0
1.000000 0.120000 0
0.000000 0.140000 0
0.020000 0.140000 0
0.040000 0.140000 0
0.060000 0.140000 0
0.080000 0.140000 0
0.100000 0.140000 0
0.120000 0.140000 0
0.140000 0.140000 0
0.160000 0.140000 0
0.180000 0.140000 0
0.200000 0.140000 0
0.220000 0.140000 0
0.240000 0.140000 0
0.260000 0.140000 0
0.280000 0.140000 0
0.300000 0.140000 0
0.320000 0.140000 0
0.340000 0.140000 0
0.360000 0.140000 0
0.380000 0.140000 0
0.400000 0.140000 0
0.420000 0.140000 0
0.440000 0.140000 0
0.460000 0.140000 0
0.480000 0.140000 0
0.500000 0.140000 0
0.520000 0.140000 0
0.540000 0.140000 0
0.560000 0.140000 0
0.580000 0.140000 0
0.600000 0.140000 0
0.620000 0.140000 0
0.640000 0.140000 0
0.660000 0.140000 0
0.680000 0.140000 0
0.700000 0.140000 0
0.720000 0.140000 0
0.740000 0.140000 0
0.760000 0.140000 0
0.780000 0.140000 0
0.800000 0.140000 0
0.820000 0.140000 0
0.840000 0.140000 0
0.860000 0.140000 0
0.880000 0.140000 0
0.900000 0.140000 0
0.920000 0.140000 0
0.940000 0.140000 0
0.960000 0.140000 0
0.980000 0.140000 0
1.000000 0.140000 0
0.000000 0.160000 0
0.020000 0.160000 0
0.040000 0.160000 0
0.060000 0.160000 0
0.080000 0.160000 0
0.100000 0.160000 0
0.120000 0.160000 0
0.140000 0.160000 0
0.160000 0.160000 0
0.180000 0.160000 0
0.200000 0.160000 0
0.220000 0.160000 0
0.240000 0.160000 0
0.260000 0.160000 0
0.280000 0.160000 0
0.300000 0.160000 0
0.320000 0.160000 0
0.340000 0.160000 0
0.360000 0.160000 0
0.380000 0.160000 0
0.400000 0.160000 0
0.420000 0.160000 0
0.440000 0.160000 0
0.460000 0.160000 0
0.480000 0.160000 0
0.500000 0.160000 0
0.520000 0.160000 0
0.540000 0.160000 0
0.560000 0.160000 0
0.580000 0.160000 0
0.600000 0.160000 0
0.620000 0.160000 0
0.640000 0.160000 0
0.660000 0.160000 0
0.680000 0.160000 0
0.700000 0.160000 0
0.720000 0.160000 0
0.740000 0.160000 0
0.760000 0.160000 0
0.780000 0.160000 0
0.800000 0.160000 0
0.820000 0.160000 0
0.840000 0.160000 0
0.860000 0.160000 0
0.880000 0.160000 0
0.900000 0.160000 0
0.920000 0.160000 0
0.940000 0.160000 0
0.960000 0.160000 0
0.980000 0.160000 0
1.000000 0.160000 0
0.000000 0.180000 0
0.020000 0.180000 0
0.040000 0.180000 0
0.060000 0.180000 0
0.080000 0.180000 0
0.100000 0.180000 0
0.120000 0.180000 0
0.140000 0.180000 0
0.160000 0.180000 0
0.180000 0.180000 0
0.200000 0.180000 0
0.220000 0.180000 0
0.240000 0.180000 0
0.260000 0.180000 0
0.280000 0.180000 0
0.300000 0.180000 0
0.320000 0.180000 0
0.340000 0.180000 0
0.360000 0.180000 0
0.380000 0.180000 0
0.400000 0.180000 0
0.420000 0.180000 0
0.440000 0.180000 0
0.460000 0.180000 0
0.480000 0.180000 0
0.500000 0.180000 0
0.520000 0.180000 0
0.540000 0.180000 0
0.560000 0.180000 0
0.580000 0.180000 0
0.600000 0.180000 0
0.620000 0.180000 0
[...]
POINT_DATA 2601 

VECTORS velocity float
0.000000 0.000000 0
-0.000000 0.000000 0
-0.000000 0.000000 0
-0.000000 0.000000 0
-0.000000 0.000000 0
0.000000 0.000000 0
0.000000 0.000000 0
0.000000 0.000000 0
-0.000000 0.000000 0
-0.000000 0.000000 0
-0.000000 0.000000 0
-0.000000 0.000000 0
0.000000 0.000000 0
0.000000 0.000000 0
0.000000 0.000000 0
0.000000 0.000000 0
0.000000 0.000000 0
0.000000 0.000000 0
-0.000000 0.000000 0
-0.000000 0.000000 0
-0.000000 0.000000 0
-0.000000 0.000000 0
-0.000000 0.000000 0
-0.000000 0.000000 0
-0.000000 0.000000 0
0.000000 0.000000 0
0.000000 0.000000 0
-0.000000 0.000000 0
-0.000000 0.000000 0
-0.000000 0.000000 0
-0.000000 0.000000 0
-0.000000 0.000000 0
-0.000000 0.000000 0
-0.000000 0.000000 0
-0.000000 0.000000 0
-0.000000 0.000000 0
-0.000000 0.000000 0
-0.000000 0.000000 0
-0.000000 0.000000 0
-0.000000 0.000000 0
0.000000 0.000000 0
0.000000 0.000000 0
0.000000 0.000000 0
0.000000 0.000000 0
0.000000 0.000000 0
0.000000 0.000000 0
0.000000 0.000000 0
0.000000 0.000000 0
0.000000 0.000000 0
-0.000000 0.000000 0
0.000000 0.000000 0
0.000000 -0.000000 0
0.000060 -0.000060 0
0.000081 -0.000023 0
-0.000015 0.000055 0
-0.000256 0.000144 0
-0.000644 0.000228 0
-0.001170 0.000301 0
-0.001813 0.000362 0
-0.002554 0.000411 0
-0.003372 0.000448 0
-0.004247 0.000475 0
-0.005163 0.000492 0
-0.006103 0.000502 0
-0.007051 0.000503 0
-0.007995 0.000498 0
-0.008921 0.000486 0
-0.009816 0.000467 0
-0.010668 0.000441 0
-0.011465 0.000409 0
-0.012193 0.000371 0
-0.012841 0.000326 0
-0.013396 0.000274 0
-0.013846 0.000216 0
-0.014182 0.000152 0
-0.014391 0.000082 0
-0.014467 0.000009 0
-0.014404 -0.000068 0
-0.014197 -0.000146 0
-0.013846 -0.000224 0
-0.013353 -0.000301 0
-0.012724 -0.000373 0
-0.011969 -0.000438 0
-0.011101 -0.000496 0
-0.010138 -0.000543 0
-0.009099 -0.000578 0
-0.008008 -0.000600 0
-0.006891 -0.000606 0
-0.005773 -0.000598 0
-0.004684 -0.000574 0
-0.003649 -0.000534 0
-0.002696 -0.000481 0
-0.001847 -0.000415 0
-0.001123 -0.000339 0
-0.000540 -0.000255 0
-0.000107 -0.000167 0
0.000172 -0.000079 0
0.000303 0.000002 0
0.000305 0.000066 0
0.000212 0.000100 0
0.000082 0.000082 0
0.000000 0.000000 0
0.000000 -0.000000 0
0.000024 -0.000081 0
-0.000075 0.000074 0
-0.000386 0.000337 0
-0.000943 0.000631 0
-0.001752 0.000914 0
-0.002793 0.001168 0
-0.004040 0.001384 0
-0.005459 0.001558 0
-0.007016 0.001693 0
-0.008677 0.001791 0
-0.010411 0.001856 0
-0.012187 0.001889 0
-0.013978 0.001893 0
-0.015757 0.001870 0
-0.017500 0.001821 0
-0.019182 0.001747 0
-0.020779 0.001648 0
-0.022268 0.001525 0
-0.023625 0.001376 0
-0.024828 0.001203 0
-0.025853 0.001006 0
-0.026681 0.000786 0
-0.027290 0.000545 0
-0.027665 0.000286 0
-0.027791 0.000013 0
-0.027657 -0.000271 0
-0.027259 -0.000558 0
-0.026595 -0.000844 0
-0.025671 -0.001122 0
-0.024499 -0.001384 0
-0.023097 -0.001623 0
-0.021489 -0.001831 0
-0.019706 -0.002002 0
-0.017786 -0.002129 0
-0.015769 -0.002208 0
-0.013702 -0.002235 0
-0.011631 -0.002207 0
-0.009605 -0.002124 0
-0.007674 -0.001988 0
-0.005884 -0.001802 0
-0.004274 -0.001573 0
-0.002882 -0.001307 0
-0.001735 -0.001016 0
-0.000850 -0.000712 0
-0.000231 -0.000410 0
0.000131 -0.000133 0
0.000267 0.000091 0
0.000231 0.000223 0
0.000102 0.000212 0
0.000000 0.000000 0
0.000000 -0.000000 0
-0.000057 0.000015 0
-0.000349 0.000387 0
-0.000947 0.000923 0
-0.001876 0.001510 0
-0.003134 0.002077 0
-0.004697 0.002589 0
-0.006530 0.003028 0
-0.008590 0.003387 0
-0.010833 0.003666 0
-0.013215 0.003870 0
-0.015692 0.004002 0
-0.018225 0.004069 0
-0.020775 0.004074 0
-0.023304 0.004020 0
-0.025776 0.003910 0
-0.028158 0.003746 0
-0.030416 0.003527 0
-0.032515 0.003255 0
-0.034424 0.002931 0
-0.036110 0.002554 0
-0.037543 0.002127 0
-0.038693 0.001653 0
-0.039536 0.001136 0
-0.040047 0.000583 0
-0.040208 0.000001 0
-0.040007 -0.000600 0
-0.039436 -0.001209 0
-0.038497 -0.001812 0
-0.037197 -0.002397 0
-0.035553 -0.002947 0
-0.033590 -0.003449 0
-0.031343 -0.003886 0
-0.028854 -0.004246 0
-0.026171 -0.004515 0
-0.023352 -0.004684 0
-0.020457 -0.004745 0
-0.017551 -0.004694 0
-0.014700 -0.004530 0
-0.011968 -0.004256 0
-0.009418 -0.003881 0
-0.007105 -0.003416 0
-0.005078 -0.002878 0
-0.003373 -0.002288 0
-0.002015 -0.001671 0
-0.001009 -0.001060 0
-0.000345 -0.000497 0
0.000012 -0.000033 0
0.000122 0.000265 0
0.000076 0.000312 0
0.000000 0.000000 0
0.000000 -0.000000 0
-0.000153 0.000268 0
-0.000675 0.000965 0
-0.001601 0.001864 0
-0.002937 0.002817 0
-0.004667 0.003735 0
-0.006759 0.004563 0
-0.009168 0.005276 0
-0.011846 0.005861 0
-0.014739 0.006318 0
-0.017795 0.006651 0
-0.020962 0.006867 0
-0.024191 0.006971 0
-0.027434 0.006971 0
-0.030645 0.006871 0
-0.033779 0.006676 0
-0.036793 0.006386 0
-0.039644 0.006005 0
-0.042292 0.005533 0
-0.044694 0.004971 0
-0.046811 0.004322 0
-0.048607 0.003589 0
-0.050045 0.002779 0
-0.051094 0.001898 0
-0.051726 0.000958 0
-0.051921 -0.000027 0
-0.051662 -0.001042 0
-0.050943 -0.002068 0
-0.049765 -0.003084 0
-0.048138 -0.004066 0
-0.046084 -0.004990 0
-0.043633 -0.005832 0
-0.040827 -0.006568 0
-0.037716 -0.007174 0
-0.034362 -0.007631 0
-0.030831 -0.007922 0
-0.027197 -0.008036 0
-0.023539 -0.007964 0
-0.019936 -0.007707 0
-0.016466 -0.007270 0
-0.013206 -0.006665 0
-0.010222 -0.005913 0
-0.007574 -0.005040 0
-0.005308 -0.004080 0
-0.003455 -0.003076 0
-0.002025 -0.002080 0
-0.001009 -0.001154 0
-0.000374 -0.000377 0
-0.000059 0.000159 0
0.000025 0.000335 0
0.000000 0.000000 0
0.000000 0.000000 0
-0.000253 0.000692 0
-0.001019 0.001835 0
-0.002292 0.003185 0
-0.004053 0.004575 0
-0.006268 0.005899 0
-0.008893 0.007090 0
-0.011873 0.008115 0
-0.015151 0.008958 0
-0.018668 0.009616 0
-0.022364 0.010093 0
-0.026179 0.010399 0
-0.030058 0.010540 0
-0.033944 0.010527 0
-0.037785 0.010364 0
-0.041528 0.010058 0
-0.045122 0.009611 0
-0.048518 0.009026 0
-0.051667 0.008305 0
-0.054521 0.007451 0
-0.057035 0.006467 0
-0.059164 0.005360 0
-0.060869 0.004140 0
-0.062113 0.002818 0
-0.062865 0.001410 0
-0.063101 -0.000063 0
-0.062803 -0.001578 0
-0.061963 -0.003106 0
-0.060583 -0.004617 0
-0.058676 -0.006078 0
-0.056265 -0.007453 0
-0.053386 -0.008706 0
-0.050085 -0.009803 0
-0.046421 -0.010711 0
-0.042462 -0.011401 0
-0.038285 -0.011848 0
-0.033974 -0.012037 0
-0.029618 -0.011955 0
-0.025310 -0.011602 0
-0.021139 -0.010987 0
-0.017193 -0.010126 0
-0.013552 -0.009048 0
-0.010285 -0.007792 0
-0.007446 -0.006407 0
-0.005076 -0.004954 0
-0.003190 -0.003506 0
-0.001786 -0.002148 0
-0.000833 -0.000984 0
-0.000278 -0.000134 0
-0.000036 0.000254 0
0.000000 0.000000 0
0.000000 0.000000 0
-0.000352 0.001288 0
-0.001363 0.003003 0
-0.002988 0.004897 0
-0.005181 0.006793 0
-0.007885 0.008574 0
-0.011041 0.010168 0
-0.014585 0.011535 0
-0.018450 0.012657 0
-0.022571 0.013531 0
-0.026879 0.014163 0
-0.031311 0.014560 0
-0.035803 0.014735 0
-0.040294 0.014697 0
-0.044724 0.014454 0
-0.049036 0.014013 0
-0.053172 0.013377 0
-0.057077 0.012550 0
-0.060696 0.011536 0
-0.063975 0.010339 0
-0.066863 0.008965 0
-0.069312 0.007424 0
-0.071277 0.005728 0
-0.072717 0.003894 0
-0.073597 0.001946 0
-0.073891 -0.000090 0
-0.073579 -0.002180 0
-0.072651 -0.004288 0
-0.071110 -0.006371 0
-0.068968 -0.008384 0
-0.066250 -0.010280 0
-0.062995 -0.012012 0
-0.059253 -0.013533 0
-0.055088 -0.014797 0
-0.050574 -0.015768 0
-0.045797 -0.016411 0
-0.040849 -0.016702 0
-0.035830 -0.016628 0
-0.030841 -0.016186 0
-0.025986 -0.015386 0
-0.021361 -0.014252 0
-0.017060 -0.012822 0
-0.013162 -0.011145 0
-0.009733 -0.009289 0
-0.006821 -0.007332 0
-0.004452 -0.005369 0
-0.002630 -0.003511 0
-0.001333 -0.001885 0
-0.000514 -0.000638 0
-0.000101 0.000057 0
0.000000 0.000000 0
0.000000 0.000000 0
-0.000447 0.002054 0
-0.001698 0.004470 0
-0.003673 0.007002 0
-0.006293 0.009471 0
-0.009482 0.011759 0
-0.013164 0.013791 0
-0.017263 0.015525 0
-0.021701 0.016944 0
-0.026406 0.018044 0
-0.031305 0.018833 0
-0.036327 0.019322 0
-0.041404 0.019523 0
-0.046469 0.019448 0
-0.051459 0.019107 0
-0.056311 0.018506 0
-0.060962 0.017652 0
-0.065351 0.016549 0
-0.069419 0.015203 0
-0.073108 0.013618 0
-0.076362 0.011805 0
-0.079129 0.009774 0
-0.081357 0.007544 0
-0.083005 0.005138 0
-0.084032 0.002584 0
-0.084410 -0.000082 0
-0.084116 -0.002818 0
-0.083138 -0.005575 0
-0.081478 -0.008301 0
-0.079146 -0.010938 0
-0.076169 -0.013425 0
-0.072586 -0.015703 0
-0.068449 -0.017709 0
-0.063826 -0.019389 0
-0.058797 -0.020692 0
-0.053452 -0.021574 0
-0.047892 -0.022004 0
-0.042226 -0.021963 0
-0.036566 -0.021447 0
-0.031026 -0.020466 0
-0.025716 -0.019051 0
-0.020740 -0.017247 0
-0.016190 -0.015119 0
-0.012145 -0.012748 0
-0.008663 -0.010235 0
-0.005783 -0.007697 0
-0.003517 -0.005268 0
-0.001855 -0.003100 0
-0.000758 -0.001366 0
-0.000166 -0.000260 0
0.000000 0.000000 0
0.000000 0.000000 0
-0.000538 0.002986 0
-0.002021 0.006229 0
-0.004336 0.009491 0
-0.007375 0.012603 0
-0.011040 0.015446 0
-0.015236 0.017949 0
-0.019876 0.020073 0
-0.024872 0.021801 0
-0.030144 0.023135 0
-0.035612 0.024083 0
-0.041202 0.024659 0
-0.046840 0.024878 0
-0.052457 0.024753 0
-0.057983 0.024296 0
-0.063352 0.023515 0
-0.068499 0.022417 0
-0.073358 0.021008 0
-0.077865 0.019293 0
-0.081959 0.017282 0
-0.085580 0.014985 0
-0.088671 0.012418 0
-0.091178 0.009604 0
-0.093054 0.006569 0
-0.094256 0.003351 0
-0.094752 -0.000006 0
-0.094515 -0.003452 0
-0.093531 -0.006926 0
-0.091797 -0.010363 0
-0.089324 -0.013693 0
-0.086135 -0.016841 0
-0.082269 -0.019732 0
-0.077780 -0.022292 0
-0.072737 -0.024450 0
-0.067222 -0.026142 0
-0.061333 -0.027315 0
-0.055176 -0.027928 0
-0.048869 -0.027954 0
-0.042534 -0.027386 0
-0.036298 -0.026237 0
-0.030282 -0.024539 0
-0.024606 -0.022347 0
-0.019375 -0.019740 0
-0.014681 -0.016815 0
-0.010598 -0.013694 0
-0.007176 -0.010515 0
-0.004441 -0.007440 0
-0.002393 -0.004644 0
-0.001006 -0.002327 0
-0.000232 -0.000701 0
0.000000 0.000000 0
0.000000 -0.000000 0
-0.000624 0.004075 0
-0.002330 0.008268 0
-0.004971 0.012355 0
-0.008415 0.016175 0
-0.012541 0.019622 0
-0.017238 0.022628 0
-0.022402 0.025161 0
-0.027938 0.027212 0
-0.033758 0.028784 0
-0.039776 0.029891 0
-0.045912 0.030550 0
-0.052091 0.030778 0
-0.058239 0.030592 0
-0.064284 0.030003 0
-0.070155 0.029022 0
-0.075785 0.027658 0
-0.081105 0.025916 0
-0.086049 0.023804 0
-0.090551 0.021333 0
-0.094547 0.018516 0
-0.097978 0.015372 0
-0.100786 0.011927 0
-0.102919 0.008216 0
-0.104332 0.004282 0
-0.104986 0.000177 0
-0.104852 -0.004038 0
-0.103910 -0.008293 0
-0.102154 -0.012508 0
-0.099590 -0.016600 0
-0.096240 -0.020480 0
-0.092138 -0.024057 0
-0.087339 -0.027242 0
-0.081910 -0.029947 0
-0.075937 -0.032096 0
-0.069521 -0.033620 0
-0.062775 -0.034468 0
-0.055825 -0.034604 0
-0.048804 -0.034018 0
-0.041850 -0.032718 0
-0.035101 -0.030743 0
-0.028690 -0.028155 0
-0.022740 -0.025043 0
-0.017359 -0.021525 0
-0.012636 -0.017741 0
-0.008638 -0.013854 0
-0.005405 -0.010051 0
-0.002950 -0.006535 0
-0.001260 -0.003528 0
-0.000297 -0.001266 0
0.000000 0.000000 0
0.000000 -0.000000 0
-0.000705 0.005315 0
-0.002622 0.010576 0
-0.005576 0.015578 0
-0.009408 0.020173 0
-0.013976 0.024269 0
-0.019153 0.027810 0
-0.024822 0.030773 0
-0.030879 0.033157 0
-0.037225 0.034972 0
-0.043772 0.036237 0
-0.050436 0.036974 0
-0.057136 0.037205 0
-0.063797 0.036946 0
-0.070345 0.036213 0
-0.076707 0.035017 0
-0.082813 0.033367 0
-0.088591 0.031271 0
-0.093973 0.028739 0
-0.098891 0.025780 0
-0.103278 0.022412 0
-0.107070 0.018657 0
-0.110208 0.014545 0
-0.112634 0.010115 0
-0.114298 0.005418 0
-0.115157 0.000513 0
-0.115177 -0.004528 0
-0.114332 -0.009623 0
-0.112610 -0.014682 0
-0.110011 -0.019607 0
-0.106553 -0.024293 0
-0.102265 -0.028633 0
-0.097199 -0.032520 0
-0.091421 -0.035851 0
-0.085017 -0.038531 0
-0.078091 -0.040477 0
-0.070761 -0.041624 0
-0.063162 -0.041925 0
-0.055438 -0.041361 0
-0.047740 -0.039939 0
-0.040222 -0.037699 0
-0.033035 -0.034709 0
-0.026320 -0.031071 0
-0.020205 -0.026919 0
-0.014798 -0.022415 0
-0.010183 -0.017747 0
-0.006419 -0.013127 0
-0.003532 -0.008789 0
-0.001523 -0.004980 0
-0.000363 -0.001961 0
0.000000 0.000000 0
0.000000 -0.000000 0
-0.000781 0.006697 0
-0.002898 0.013140 0
-0.006147 0.019142 0
-0.010347 0.024576 0
-0.015336 0.029366 0
-0.020970 0.033473 0
-0.027121 0.036886 0
-0.033674 0.039614 0
-0.040525 0.041677 0
-0.047579 0.043101 0
-0.054748 0.043914 0
-0.061951 0.044140 0
-0.069109 0.043800 0
-0.076146 0.042913 0
-0.082988 0.041490 0
-0.089563 0.039541 0
-0.095799 0.037076 0
-0.101625 0.034104 0
-0.106971 0.030638 0
-0.111767 0.026696 0
-0.115948 0.022302 0
-0.119447 0.017491 0
-0.122206 0.012307 0
-0.124168 0.006806 0
-0.125285 0.001055 0
-0.125514 -0.004864 0
-0.124826 -0.010860 0
-0.123199 -0.016828 0
-0.120627 -0.022657 0
-0.117119 -0.028226 0
-0.112701 -0.033411 0
-0.107416 -0.038086 0
-0.101329 -0.042129 0
-0.094525 -0.045426 0
-0.087107 -0.047876 0
-0.079201 -0.049396 0
-0.070946 -0.049928 0
-0.062500 -0.049439 0
-0.054029 -0.047934 0
-0.045702 -0.045448 0
-0.037692 -0.042057 0
-0.030160 -0.037873 0
-0.023257 -0.033047 0
-0.017114 -0.027762 0
-0.011836 -0.022233 0
-0.007499 -0.016702 0
-0.004149 -0.011430 0
-0.001800 -0.006697 0
-0.000432 -0.002789 0
0.000000 0.000000 0
0.000000 -0.000000 0
-0.000852 0.008213 0
-0.003155 0.015943 0
-0.006681 0.023027 0
-0.011227 0.029362 0
-0.016611 0.034891 0
-0.022677 0.039594 0
-0.029283 0.043476 0
-0.036306 0.046560 0
-0.043635 0.048877 0
-0.051172 0.050461 0
-0.058825 0.051347 0
-0.066510 0.051565 0
-0.074147 0.051140 0
-0.081659 0.050092 0
-0.088971 0.048434 0
-0.096010 0.046178 0
-0.102704 0.043333 0
-0.108981 0.039910 0
-0.114768 0.035923 0
-0.119994 0.031389 0
-0.124589 0.026337 0
-0.128487 0.020803 0
-0.131620 0.014836 0
-0.133930 0.008496 0
-0.135359 0.001859 0
-0.135860 -0.004987 0
-0.135392 -0.011939 0
-0.133927 -0.018881 0
-0.131449 -0.025687 0
-0.127957 -0.032220 0
-0.123470 -0.038336 0
-0.118022 -0.043892 0
-0.111674 -0.048743 0
-0.104505 -0.052754 0
-0.096621 -0.055802 0
-0.088149 -0.057784 0
-0.079236 -0.058625 0
-0.070051 -0.058278 0
-0.060775 -0.056738 0
-0.051598 -0.054036 0
-0.042713 -0.050251 0
-0.034308 -0.045506 0
-0.026557 -0.039965 0
-0.019619 -0.033836 0
-0.013622 -0.027362 0
-0.008665 -0.020814 0
-0.004814 -0.014488 0
-0.002097 -0.008697 0
-0.000506 -0.003761 0
0.000000 0.000000 0
0.000000 0.000000 0
-0.000918 0.009853 0
-0.003393 0.018969 0
-0.007175 0.027213 0
-0.012041 0.034506 0
-0.017794 0.040816 0
-0.024261 0.046144 0
-0.031293 0.050515 0
-0.038757 0.053967 0
-0.046536 0.056544 0
-0.054529 0.058291 0
-0.062640 0.059252 0
-0.070784 0.059461 0
-0.078879 0.058949 0
-0.086850 0.057737 0
-0.094620 0.055841 0
-0.102118 0.053275 0
-0.109269 0.050046 0
-0.116001 0.046167 0
-0.122241 0.041651 0
-0.127916 0.036518 0
-0.132955 0.030795 0
-0.137285 0.024522 0
-0.140836 0.017750 0
-0.143543 0.010544 0
-0.145343 0.002985 0
-0.146177 -0.004831 0
-0.145999 -0.012792 0
-0.144767 -0.020771 0
-0.142456 -0.028627 0
-0.139054 -0.036206 0
-0.134567 -0.043346 0
-0.129021 -0.049882 0
-0.122468 -0.055646 0
-0.114981 -0.060479 0
-0.106664 -0.064233 0
-0.097645 -0.066781 0
-0.088079 -0.068025 0
-0.078143 -0.067900 0
-0.068035 -0.066387 0
-0.057966 -0.063510 0
-0.048154 -0.059348 0
-0.038813 -0.054029 0
-0.030150 -0.047736 0
-0.022349 -0.040698 0
-0.015570 -0.033187 0
-0.009939 -0.025509 0
-0.005540 -0.017998 0
-0.002422 -0.011005 0
-0.000587 -0.004887 0
0.000000 0.000000 0
0.000000 0.000000 0
-0.000978 0.011606 0
-0.003610 0.022201 0
-0.007626 0.031675 0
-0.012785 0.039980 0
-0.018875 0.047111 0
-0.025712 0.053093 0
-0.033136 0.057972 0
-0.041007 0.061804 0
-0.049205 0.064649 0
-0.057622 0.066565 0
-0.066163 0.067602 0
-0.074739 0.067805 0
-0.083270 0.067206 0
-0.091680 0.065833 0
-0.099894 0.063702 0
-0.107839 0.060826 0
-0.115442 0.057216 0
-0.122632 0.052882 0
-0.129335 0.047838 0
-0.135476 0.042103 0
-0.140981 0.035706 0
-0.145777 0.028685 0
-0.149788 0.021095 0
-0.152941 0.013003 0
-0.155168 0.004493 0
-0.156401 -0.004331 0
-0.156582 -0.013349 0
-0.155659 -0.022424 0
-0.153594 -0.031400 0
-0.150361 -0.040109 0
-0.145953 -0.048369 0
-0.140384 -0.055991 0
-0.133694 -0.062782 0
-0.125948 -0.068557 0
-0.117245 -0.073138 0
-0.107710 -0.076370 0
-0.097504 -0.078127 0
-0.086815 -0.078322 0
-0.075854 -0.076914 0
-0.064856 -0.073917 0
-0.054065 -0.069404 0
-0.043726 -0.063510 0
-0.034079 -0.056429 0
-0.025344 -0.048416 0
-0.017713 -0.039772 0
-0.011341 -0.030844 0
-0.006341 -0.022005 0
-0.002781 -0.013650 0
-0.000676 -0.006183 0
0.000000 -0.000000 0
0.000000 0.000000 0
-0.001031 0.013463 0
-0.003804 0.025618 0
-0.008030 0.036388 0
-0.013453 0.045754 0
-0.019847 0.053743 0
-0.027017 0.060405 0
-0.034797 0.065811 0
-0.043039 0.070037 0
-0.051619 0.073159 0
-0.060426 0.075249 0
-0.069362 0.076368 0
-0.078341 0.076569 0
-0.087280 0.075890 0
-0.096105 0.074360 0
-0.104742 0.072000 0
-0.113119 0.068823 0
-0.121165 0.064840 0
-0.128809 0.060059 0
-0.135977 0.054495 0
-0.142595 0.048164 0
-0.148587 0.041096 0
-0.153875 0.033328 0
-0.158381 0.024914 0
-0.162027 0.015924 0
-0.164735 0.006445 0
-0.166430 -0.003417 0
-0.167042 -0.013534 0
-0.166506 -0.023759 0
-0.164770 -0.033925 0
-0.161793 -0.043847 0
-0.157552 -0.053323 0
-0.152046 -0.062141 0
-0.145300 -0.070082 0
-0.137369 -0.076928 0
-0.128340 -0.082471 0
-0.118337 -0.086521 0
-0.107521 -0.088921 0
-0.096087 -0.089550 0
-0.084265 -0.088345 0
-0.072308 -0.085300 0
-0.060490 -0.080478 0
-0.049092 -0.074015 0
-0.038389 -0.066118 0
-0.028641 -0.057065 0
-0.020079 -0.047190 0
-0.012895 -0.036881 0
-0.007232 -0.026559 0
-0.003181 -0.016670 0
-0.000777 -0.007667 0
0.000000 -0.000000 0
0.000000 0.000000 0
-0.001078 0.015411 0
-0.003974 0.029200 0
-0.008384 0.041323 0
-0.014037 0.051796 0
-0.020699 0.060676 0
-0.028165 0.068043 0
-0.036260 0.073994 0
-0.044833 0.078626 0
-0.053754 0.082036 0
-0.062912 0.084308 0
-0.072206 0.085517 0
-0.081551 0.085722 0
-0.090865 0.084970 0
-0.100074 0.083294 0
-0.109108 0.080716 0
-0.117895 0.077250 0
-0.126367 0.072907 0
-0.134454 0.067694 0
-0.142083 0.061624 0
-0.149180 0.054713 0
-0.155669 0.046986 0
-0.161470 0.038480 0
-0.166500 0.029247 0
-0.170677 0.019356 0
-0.173916 0.008896 0
-0.176132 -0.002024 0
-0.177243 -0.013273 0
-0.177172 -0.024696 0
-0.175851 -0.036114 0
-0.173222 -0.047327 0
-0.169245 -0.058116 0
-0.163900 -0.068242 0
-0.157195 -0.077460 0
-0.149167 -0.085517 0
-0.139893 -0.092170 0
-0.129488 -0.097189 0
-0.118110 -0.100377 0
-0.105960 -0.101578 0
-0.093280 -0.100693 0
-0.080347 -0.097692 0
-0.067464 -0.092621 0
-0.054947 -0.085611 0
-0.043116 -0.076880 0
-0.032275 -0.066725 0
-0.022700 -0.055518 0
-0.014623 -0.043691 0
-0.008226 -0.031719 0
-0.003630 -0.020105 0
-0.000890 -0.009363 0
0.000000 -0.000000 0
0.000000 0.000000 0
-0.001117 0.017437 0
-0.004117 0.032923 0
-0.008682 0.046450 0
-0.014533 0.058069 0
-0.021423 0.067871 0
-0.029143 0.075966 0
-0.037510 0.082479 0
-0.046369 0.087531 0
-0.055588 0.091238 0
-0.065052 0.093701 0
-0.074661 0.095008 0
-0.084330 0.095227 0
-0.093979 0.094413 0
-0.103535 0.092603 0
-0.112931 0.089821 0
-0.122098 0.086083 0
-0.130969 0.081399 0
-0.139478 0.075775 0
-0.147553 0.069221 0
-0.155122 0.061751 0
-0.162108 0.053385 0
-0.168430 0.044159 0
-0.174004 0.034122 0
-0.178741 0.023340 0
-0.182550 0.011899 0
-0.185339 -0.000090 0
-0.187013 -0.012493 0
-0.187483 -0.025151 0
-0.186664 -0.037875 0
-0.184480 -0.050453 0
-0.180871 -0.062645 0
-0.175796 -0.074191 0
-0.169242 -0.084815 0
-0.161226 -0.094230 0
-0.151807 -0.102151 0
-0.141087 -0.108305 0
-0.129218 -0.112448 0
-0.116402 -0.114380 0
-0.102891 -0.113958 0
-0.088981 -0.111116 0
-0.075006 -0.105878 0
-0.061322 -0.098362 0
-0.048294 -0.088791 0
-0.036278 -0.077481 0
-0.025601 -0.064842 0
-0.016546 -0.051354 0
-0.009338 -0.037552 0
-0.004134 -0.024006 0
-0.001018 -0.011297 0
0.000000 -0.000000 0
0.000000 0.000000 0
-0.001149 0.019528 0
-0.004232 0.036764 0
-0.008923 0.051738 0
-0.014934 0.064537 0
-0.022013 0.075286 0
-0.029941 0.084130 0
-0.038534 0.091220 0
-0.047631 0.096704 0
-0.057097 0.100718 0
-0.066818 0.103381 0
-0.076694 0.104795 0
-0.086638 0.105040 0
-0.096575 0.104176 0
-0.106433 0.102246 0
-0.116147 0.099278 0