# vtk DataFile Version 2.0
generated by CFD-lab course output (written by Tobias Neckel) 
ASCII

DATASET STRUCTURED_GRID
DIMENSIONS  51 51 1 
POINTS 2601 float

0.000000 0.000000 0
0.020000 0.000000 0
0.040000 0.000000 0
0.060000 0.000000 0
0.080000 0.000000 0
0.100000 0.000000 0
0.120000 0.000000 0
0.140000 0.000000 0
0.160000 0.000000 0
0.180000 0.000000 0
0.200000 0.000000 0
0.220000 0.000000 0
0.240000 0.000000 0
0.260000 0.000000 0
0.280000 0.000000 0
0.300000 0.000000 0
0.320000 0.000000 0
0.340000 0.000000 0
0.360000 0.000000 0
0.380000 0.000000 0
0.400000 0.000000 0
0.420000 0.000000 0
0.440000 0.000000 0
0.460000 0.000000 0
0.480000 0.000000 0
0.500000 0.000000 0
0.520000 0.000000 0
0.540000 0.000000 0
0.560000 0.000000 0
0.580000 0.000000 0
0.600000 0.000000 0
0.620000 0.000000 0
0.640000 0.000000 0
0.660000 0.000000 0
0.680000 0.000000 0
0.700000 0.000000 0
0.720000 0.000000 0
0.740000 0.000000 0
0.760000 0.000000 0
0.780000 0.000000 0
0.800000 0.000000 0
0.820000 0.000000 0
0.840000 0.000000 0
0.860000 0.000000 0
0.880000 0.000000 0
0.900000 0.000000 0
0.920000 0.000000 0
0.940000 0.000000 0
0.960000 0.000000 0
0.980000 0.000000 0
1.000000 0.000000 0
0.000000 0.020000 0
0.020000 0.020000 0
0.040000 0.020000 0
0.060000 0.020000 0
0.080000 0.020000 0
0.100000 0.020000 0
0.120000 0.020000 0
0.140000 0.020000 0
0.160000 0.020000 0
0.180000 0.020000 0
0.200000 0.020000 0
0.220000 0.020000 0
0.240000 0.020000 0
0.260000 0.020000 0
0.280000 0.020000 0
0.300000 0.020000 0
0.320000 0.020000 0
0.340000 0.020000 0
0.360000 0.020000 0
0.380000 0.020000 0
0.400000 0.020000 0
0.420000 0.020000 0
0.440000 0.020000 0
0.460000 0.020000 0
0.480000 0.020000 0
0.500000 0.020000 0
0.520000 0.020000 0
0.540000 0.020000 0
0.560000 0.020000 0
0.580000 0.020000 0
0.600000 0.020000 0
0.620000 0.020000 0
0.640000 0.020000 0
0.660000 0.020000 0
0.680000 0.020000 0
0.700000 0.020000 0
0.720000 0.020000 0
0.740000 0.020000 0
0.760000 0.020000 0
0.780000 0.020000 0
0.800000 0.020000 0
0.820000 0.020000 0
0.840000 0.020000 0
0.860000 0.020000 0
0.880000 0.020000 0
0.900000 0.020000 0
0.920000 0.020000 0
0.940000 0.020000 0
0.960000 0.020000 0
0.980000 0.020000 0
1.000000 0.020000 0
0.000000 0.040000 0
0.020000 0.040000 0
0.040000 0.040000 0
0.060000 0.040000 0
0.080000 0.040000 0
0.100000 0.040000 0
0.120000 0.040000 0
0.140000 0.040000 0
0.160000 0.040000 0
0.180000 0.040000 0
0.200000 0.040000 0
0.220000 0.040000 0
0.240000 0.040000 0
0.260000 0.040000 0
0.280000 0.040000 0
0.300000 0.040000 0
0.320000 0.040000 0
0.340000 0.040000 0
0.360000 0.040000 0
0.380000 0.040000 0
0.400000 0.040000 0
0.420000 0.040000 0
0.440000 0.040000 0
0.460000 0.040000 0
0.480000 0.040000 0
0.500000 0.040000 0
0.520000 0.040000 0
0.540000 0.040000 0
0.560000 0.040000 0
0.580000 0.040000 0
0.600000 0.040000 0
0.620000 0.040000 0
0.640000 0.040000 0
0.660000 0.040000 0
0.680000 0.040000 0
0.700000 0.040000 0
0.720000 0.040000 0
0.740000 0.040000 0
0.760000 0.040000 0
0.780000 0.040000 0
0.800000 0.040000 0
0.820000 0.040000 0
0.840000 0.040000 0
0.860000 0.040000 0
0.880000 0.040000 0
0.900000 0.040000 0
0.920000 0.040000 0
0.940000 0.040000 0
0.960000 0.040000 0
0.980000 0.040000 0
1.000000 0.040000 0
0.000000 0.060000 0
0.020000 0.060000 0
0.040000 0.060000 0
0.060000 0.060000 0
0.080000 0.060000 0
0.100000 0.060000 0
0.120000 0.060000 0
0.140000 0.060000 0
0.160000 0.060000 0
0.180000 0.060000 0
0.200000 0.060000 0
0.220000 0.060000 0
0.240000 0.060000 0
0.260000 0.060000 0
0.280000 0.060000 0
0.300000 0.060000 0
0.320000 0.060000 0
0.340000 0.060000 0
0.360000 0.060000 0
0.380000 0.060000 0
0.400000 0.060000 0
0.420000 0.060000 0
0.440000 0.060000 0
0.460000 0.060000 0
0.480000 0.060000 0
0.500000 0.060000 0
0.520000 0.060000 0
0.540000 0.060000 0
0.560000 0.060000 0
0.580000 0.060000 0
0.600000 0.060000 0
0.620000 0.060000 0
0.640000 0.060000 0
0.660000 0.060000 0
0.680000 0.060000 0
0.700000 0.060000 0
0.720000 0.060000 0
0.740000 0.060000 0
0.760000 0.060000 0
0.780000 0.060000 0
0.800000 0.060000 0
0.820000 0.060000 0
0.840000 0.060000 0
0.860000 0.060000 0
0.880000 0.060000 0
0.900000 0.060000 0
0.920000 0.060000 0
0.940000 0.060000 0
0.960000 0.060000 0
0.980000 0.060000 0
1.000000 0.060000 0
0.000000 0.080000 0
0.020000 0.080000 0
0.040000 0.080000 0
0.060000 0.080000 0
0.080000 0.080000 0
0.100000 0.080000 0
0.120000 0.080000 0
0.140000 0.080000 0
0.160000 0.080000 0
0.180000 0.080000 0
0.200000 0.080000 0
0.220000 0.080000 0
0.240000 0.080000 0
0.260000 0.080000 0
0.280000 0.080000 0
0.300000 0.080000 0
0.320000 0.080000 0
0.340000 0.080000 0
0.360000 0.080000 0
0.380000 0.080000 0
0.400000 0.080000 0
0.420000 0.080000 0
0.440000 0.080000 0
0.460000 0.080000 0
0.480000 0.080000 0
0.500000 0.080000 0
0.520000 0.080000 0
0.540000 0.080000 0
0.560000 0.080000 0
0.580000 0.080000 0
0.600000 0.080000 0
0.620000 0.080000 0
0.640000 0.080000 0
0.660000 0.080000 0
0.680000 0.080000 0
0.700000 0.080000 0
0.720000 0.080000 0
0.740000 0.080000 0
0.760000 0.080000 0
0.780000 0.080000 0
0.800000 0.080000 0
0.820000 0.080000 0
0.840000 0.080000 0
0.860000 0.080000 0
0.880000 0.080000 0
0.900000 0.080000 0
0.920000 0.080000 0
0.940000 0.080000 0
0.960000 0.080000 0
0.980000 0.080000 0
1.000000 0.080000 0
0.000000 0.100000 0
0.020000 0.100000 0
0.040000 0.100000 0
0.060000 0.100000 0
0.080000 0.100000 0
0.100000 0.100000 0
0.120000 0.100000 0
0.140000 0.100000 0
0.160000 0.100000 0
0.180000 0.100000 0
0.200000 0.100000 0
0.220000 0.100000 0
0.240000 0.100000 0
0.260000 0.100000 0
0.280000 0.100000 0
0.300000 0.100000 0
0.320000 0.100000 0
0.340000 0.100000 0
0.360000 0.100000 0
0.380000 0.100000 0
0.400000 0.100000 0
0.420000 0.100000 0
0.440000 0.100000 0
0.460000 0.100000 0
0.480000 0.100000 0
0.500000 0.100000 0
0.520000 0.100000 0
0.540000 0.100000 0
0.560000 0.100000 0
0.580000 0.100000 0
0.600000 0.100000 0
0.620000 0.100000 0
0.640000 0.100000 0
0.660000 0.100000 0
0.680000 0.100000 0
0.700000 0.100000 0
0.720000 0.100000 0
0.740000 0.100000 0
0.760000 0.100000 0
0.780000 0.100000 0
0.800000 0.100000 0
0.820000 0.100000 0
0.840000 0.100000 0
0.860000 0.100000 0
0.880000 0.100000 0
0.900000 0.100000 0
0.920000 0.100000 0
0.940000 0.100000 0
0.960000 0.100000 0
0.980000 0.100000 0
1.000000 0.100000 0
0.000000 0.120000 0
0.020000 0.120000 0
0.040000 0.120000 0
0.060000 0.120000 0
0.080000 0.120000 0
0.100000 0.120000 0
0.120000 0.120000 0
0.140000 0.120000 0
0.160000 0.120000 0
0.180000 0.120000 0
0.200000 0.120000 0
0.220000 0.120000 0
0.240000 0.120000 0
0.260000 0.120000 0
0.280000 0.120000 0
0.300000 0.120000 0
0.320000 0.120000 0
0.340000 0.120000 0
0.360000 0.120000 0
0.380000 0.120000 0
0.400000 0.120000 0
0.420000 0.120000 0
0.440000 0.120000 0
0.460000 0.120000 0
0.480000 0.120000 0
0.500000 0.120000 0
0.520000 0.120000 0
0.540000 0.120000 0
0.560000 0.120000 0
0.580000 0.120000 0
0.600000 0.120000 0
0.620000 0.120000 0
0.640000 0.120000 0
0.660000 0.120000 0
0.680000 0.120000 0
0.700000 0.120000 0
0.720000 0.120000 0
0.740000 0.120000 0
0.760000 0.120000 0
0.780000 0.120000 0
0.800000 0.120000 0
0.820000 0.120000 0
0.840000 0.120000 0
0.860000 0.120000 0
0.880000 0.120000 0
0.900000 0.120000 0
0.920000 0.120000 0
0.940000 0.120000 0
0.960000 0.120000 0
0.980000 0.120000 0
1.000000 0.120000 0
0.000000 0.140000 0
0.020000 0.140000 0
0.040000 0.140000 0
0.060000 0.140000 0
0.080000 0.140000 0
0.100000 0.140000 0
0.120000 0.140000 0
0.140000 0.140000 0
0.160000 0.140000 0
0.180000 0.140000 0
0.200000 0.140000 0
0.220000 0.140000 0
0.240000 0.140000 0
0.260000 0.140000 0
0.280000 0.140000 0
0.300000 0.140000 0
0.320000 0.140000 0
0.340000 0.140000 0
0.360000 0.140000 0
0.380000 0.140000 0
0.400000 0.140000 0
0.420000 0.140000 0
0.440000 0.140000 0
0.460000 0.140000 0
0.480000 0.140000 0
0.500000 0.140000 0
0.520000 0.140000 0
0.540000 0.140000 0
0.560000 0.140000 0
0.580000 0.140000 0
0.600000 0.140000 0
0.620000 0.140000 0
0.640000 0.140000 0
0.660000 0.140000 0
0.680000 0.140000 0
0.700000 0.140000 0
0.720000 0.140000 0
0.740000 0.140000 0
0.760000 0.140000 0
0.780000 0.140000 0
0.800000 0.140000 0
0.820000 0.140000 0
0.840000 0.140000 0
0.860000 0.140000 0
0.880000 0.140000 0
0.900000 0.140000 0
0.920000 0.140000 0
0.940000 0.140000 0
0.960000 0.140000 0
0.980000 0.140000 0
1.000000 0.140000 0
0.000000 0.160000 0
0.020000 0.160000 0
0.040000 0.160000 0
0.060000 0.160000 0
0.080000 0.160000 0
0.100000 0.160000 0
0.120000 0.160000 0
0.140000 0.160000 0
0.160000 0.160000 0
0.180000 0.160000 0
0.200000 0.160000 0
0.220000 0.160000 0
0.240000 0.160000 0
0.260000 0.160000 0
0.280000 0.160000 0
0.300000 0.160000 0
0.320000 0.160000 0
0.340000 0.160000 0
0.360000 0.160000 0
0.380000 0.160000 0
0.400000 0.160000 0
0.420000 0.160000 0
0.440000 0.160000 0
0.460000 0.160000 0
0.480000 0.160000 0
0.500000 0.160000 0
0.520000 0.160000 0
0.540000 0.160000 0
0.560000 0.160000 0
0.580000 0.160000 0
0.600000 0.160000 0
0.620000 0.160000 0
0.640000 0.160000 0
0.660000 0.160000 0
0.680000 0.160000 0
0.700000 0.160000 0
0.720000 0.160000 0
0.740000 0.160000 0
0.760000 0.160000 0
0.780000 0.160000 0
0.800000 0.160000 0
0.820000 0.160000 0
0.840000 0.160000 0
0.860000 0.160000 0
0.880000 0.160000 0
0.900000 0.160000 0
0.920000 0.160000 0
0.940000 0.160000 0
0.960000 0.160000 0
0.980000 0.160000 0
1.000000 0.160000 0
0.000000 0.180000 0
0.020000 0.180000 0
0.040000 0.180000 0
0.060000 0.180000 0
0.080000 0.180000 0
0.100000 0.180000 0
0.120000 0.180000 0
0.140000 0.180000 0
0.160000 0.180000 0
0.180000 0.180000 0
0.200000 0.180000 0
0.220000 0.180000 0
0.240000 0.180000 0
0.260000 0.180000 0
0.280000 0.180000 0
0.300000 0.180000 0
0.320000 0.180000 0
0.340000 0.180000 0
0.360000 0.180000 0
0.380000 0.180000 0
0.400000 0.180000 0
0.420000 0.180000 0
0.440000 0.180000 0
0.460000 0.180000 0
0.480000 0.180000 0
0.500000 0.180000 0
0.520000 0.180000 0
0.540000 0.180000 0
0.560000 0.180000 0
0.580000 0.180000 0
0.600000 0.180000 0
0.620000 0.180000 0
[...]
POINT_DATA 2601 

VECTORS velocity float
0.000000 0.000000 0
-0.000000 0.000000 0
-0.000000 0.000000 0
-0.000000 0.000000 0
-0.000000 0.000000 0
-0.000000 0.000000 0
0.000000 0.000000 0
0.000000 0.000000 0
0.000000 0.000000 0
0.000000 0.000000 0
-0.000000 0.000000 0
-0.000000 0.000000 0
-0.000000 0.000000 0
0.000000 0.000000 0
0.000000 0.000000 0
0.000000 0.000000 0
-0.000000 0.000000 0
-0.000000 0.000000 0
-0.000000 0.000000 0
-0.000000 0.000000 0
-0.000000 0.000000 0
-0.000000 0.000000 0
-0.000000 0.000000 0
0.000000 0.000000 0
0.000000 0.000000 0
0.000000 0.000000 0
0.000000 0.000000 0
0.000000 0.000000 0
-0.000000 0.000000 0
-0.000000 0.000000 0
-0.000000 0.000000 0
-0.000000 0.000000 0
-0.000000 0.000000 0
-0.000000 0.000000 0
-0.000000 0.000000 0
-0.000000 0.000000 0
0.000000 0.000000 0
0.000000 0.000000 0
0.000000 0.000000 0
0.000000 0.000000 0
0.000000 0.000000 0
0.000000 0.000000 0
-0.000000 0.000000 0
-0.000000 0.000000 0
-0.000000 0.000000 0
-0.000000 0.000000 0
0.000000 0.000000 0
0.000000 0.000000 0
0.000000 0.000000 0
0.000000 0.000000 0
0.000000 0.000000 0
0.000000 -0.000000 0
0.000060 -0.000059 0
0.000081 -0.000023 0
-0.000015 0.000055 0
-0.000256 0.000143 0
-0.000645 0.000227 0
-0.001169 0.000301 0
-0.001811 0.000362 0
-0.002551 0.000411 0
-0.003367 0.000448 0
-0.004242 0.000474 0
-0.005156 0.000492 0
-0.006094 0.000501 0
-0.007041 0.000503 0
-0.007984 0.000497 0
-0.008908 0.000485 0
-0.009802 0.000466 0
-0.010653 0.000441 0
-0.011448 0.000409 0
-0.012176 0.000370 0
-0.012822 0.000325 0
-0.013377 0.000273 0
-0.013827 0.000216 0
-0.014161 0.000152 0
-0.014371 0.000082 0
-0.014447 0.000009 0
-0.014384 -0.000068 0
-0.014178 -0.000146 0
-0.013827 -0.000224 0
-0.013335 -0.000300 0
-0.012707 -0.000372 0
-0.011954 -0.000438 0
-0.011088 -0.000495 0
-0.010126 -0.000542 0
-0.009089 -0.000577 0
-0.008000 -0.000599 0
-0.006884 -0.000605 0
-0.005769 -0.000597 0
-0.004681 -0.000573 0
-0.003647 -0.000534 0
-0.002695 -0.000481 0
-0.001847 -0.000415 0
-0.001124 -0.000339 0
-0.000541 -0.000255 0
-0.000108 -0.000167 0
0.000171 -0.000080 0
0.000302 0.000001 0
0.000304 0.000066 0
0.000212 0.000100 0
0.000082 0.000082 0
0.000000 -0.000000 0
0.000000 -0.000000 0
0.000024 -0.000081 0
-0.000076 0.000074 0
-0.000386 0.000336 0
-0.000943 0.000630 0
-0.001750 0.000913 0
-0.002790 0.001167 0
-0.004035 0.001382 0
-0.005452 0.001556 0
-0.007007 0.001691 0
-0.008665 0.001789 0
-0.010396 0.001853 0
-0.012169 0.001886 0
-0.013957 0.001890 0
-0.015734 0.001867 0
-0.017474 0.001818 0
-0.019154 0.001744 0
-0.020748 0.001646 0
-0.022235 0.001522 0
-0.023590 0.001374 0
-0.024791 0.001201 0
-0.025815 0.001004 0
-0.026641 0.000785 0
-0.027251 0.000545 0
-0.027625 0.000286 0
-0.027751 0.000013 0
-0.027618 -0.000270 0
-0.027221 -0.000557 0
-0.026559 -0.000843 0
-0.025637 -0.001120 0
-0.024467 -0.001381 0
-0.023067 -0.001620 0
-0.021462 -0.001828 0
-0.019683 -0.001999 0
-0.017766 -0.002126 0
-0.015752 -0.002205 0
-0.013688 -0.002231 0
-0.011620 -0.002204 0
-0.009598 -0.002121 0
-0.007669 -0.001986 0
-0.005880 -0.001800 0
-0.004273 -0.001571 0
-0.002882 -0.001306 0
-0.001736 -0.001015 0
-0.000852 -0.000711 0
-0.000233 -0.000410 0
0.000129 -0.000134 0
0.000266 0.000090 0
0.000230 0.000223 0
0.000102 0.000212 0
0.000000 0.000000 0
0.000000 -0.000000 0
-0.000057 0.000016 0
-0.000350 0.000386 0
-0.000946 0.000922 0
-0.001874 0.001508 0
-0.003130 0.002075 0
-0.004691 0.002586 0
-0.006521 0.003024 0
-0.008578 0.003382 0
-0.010817 0.003661 0
-0.013195 0.003864 0
-0.015669 0.003996 0
-0.018198 0.004062 0
-0.020743 0.004067 0
-0.023268 0.004013 0
-0.025737 0.003904 0
-0.028115 0.003740 0
-0.030369 0.003522 0
-0.032465 0.003251 0
-0.034371 0.002926 0
-0.036055 0.002550 0
-0.037486 0.002124 0
-0.038635 0.001651 0
-0.039477 0.001135 0
-0.039988 0.000583 0
-0.040150 0.000002 0
-0.039949 -0.000598 0
-0.039380 -0.001206 0
-0.038443 -0.001808 0
-0.037146 -0.002392 0
-0.035505 -0.002942 0
-0.033546 -0.003442 0
-0.031303 -0.003879 0
-0.028818 -0.004239 0
-0.026140 -0.004508 0
-0.023326 -0.004677 0
-0.020435 -0.004738 0
-0.017534 -0.004687 0
-0.014686 -0.004524 0
-0.011958 -0.004251 0
-0.009412 -0.003877 0
-0.007102 -0.003413 0
-0.005077 -0.002876 0
-0.003373 -0.002286 0
-0.002016 -0.001670 0
-0.001011 -0.001061 0
-0.000347 -0.000498 0
0.000011 -0.000035 0
0.000122 0.000264 0
0.000076 0.000312 0
0.000000 0.000000 0
0.000000 -0.000000 0
-0.000154 0.000268 0
-0.000675 0.000964 0
-0.001599 0.001862 0
-0.002933 0.002814 0
-0.004660 0.003730 0
-0.006749 0.004557 0
-0.009154 0.005268 0
-0.011828 0.005852 0
-0.014716 0.006309 0
-0.017767 0.006641 0
-0.020929 0.006856 0
-0.024153 0.006960 0
-0.027391 0.006960 0
-0.030597 0.006860 0
-0.033726 0.006665 0
-0.036735 0.006376 0
-0.039582 0.005996 0
-0.042225 0.005525 0
-0.044624 0.004964 0
-0.046739 0.004316 0
-0.048532 0.003585 0
-0.049968 0.002776 0
-0.051017 0.001897 0
-0.051649 0.000959 0
-0.051844 -0.000025 0
-0.051587 -0.001039 0
-0.050870 -0.002063 0
-0.049695 -0.003077 0
-0.048071 -0.004058 0
-0.046021 -0.004981 0
-0.043575 -0.005821 0
-0.040774 -0.006556 0
-0.037669 -0.007162 0
-0.034320 -0.007619 0
-0.030795 -0.007910 0
-0.027167 -0.008023 0
-0.023514 -0.007953 0
-0.019916 -0.007696 0
-0.016451 -0.007260 0
-0.013195 -0.006657 0
-0.010215 -0.005906 0
-0.007570 -0.005035 0
-0.005306 -0.004076 0
-0.003454 -0.003074 0
-0.002026 -0.002079 0
-0.001010 -0.001155 0
-0.000375 -0.000378 0
-0.000059 0.000157 0
0.000025 0.000334 0
0.000000 0.000000 0
0.000000 -0.000000 0
-0.000253 0.000691 0
-0.001018 0.001833 0
-0.002288 0.003181 0
-0.004047 0.004569 0
-0.006258 0.005890 0
-0.008878 0.007080 0
-0.011854 0.008103 0
-0.015127 0.008944 0
-0.018638 0.009601 0
-0.022328 0.010077 0
-0.026137 0.010382 0
-0.030010 0.010524 0
-0.033890 0.010510 0
-0.037724 0.010348 0
-0.041461 0.010042 0
-0.045050 0.009596 0
-0.048440 0.009012 0
-0.051584 0.008293 0
-0.054435 0.007440 0
-0.056945 0.006458 0
-0.059072 0.005354 0
-0.060775 0.004136 0
-0.062018 0.002816 0
-0.062770 0.001410 0
-0.063007 -0.000060 0
-0.062710 -0.001572 0
-0.061873 -0.003098 0
-0.060497 -0.004607 0
-0.058594 -0.006065 0
-0.056188 -0.007438 0
-0.053314 -0.008690 0
-0.050020 -0.009785 0
-0.046362 -0.010692 0
-0.042409 -0.011382 0
-0.038239 -0.011830 0
-0.033935 -0.012018 0
-0.029586 -0.011938 0
-0.025283 -0.011586 0
-0.021118 -0.010972 0
-0.017177 -0.010113 0
-0.013541 -0.009038 0
-0.010277 -0.007784 0
-0.007442 -0.006401 0
-0.005073 -0.004951 0
-0.003189 -0.003505 0
-0.001786 -0.002149 0
-0.000834 -0.000986 0
-0.000278 -0.000136 0
-0.000036 0.000252 0
0.000000 0.000000 0
0.000000 0.000000 0
-0.000352 0.001286 0
-0.001360 0.003000 0
-0.002983 0.004890 0
-0.005172 0.006783 0
-0.007872 0.008561 0
-0.011022 0.010152 0
-0.014560 0.011517 0
-0.018420 0.012637 0
-0.022533 0.013510 0
-0.026834 0.014140 0
-0.031259 0.014537 0
-0.035744 0.014712 0
-0.040227 0.014674 0
-0.044651 0.014432 0
-0.048956 0.013991 0
-0.053085 0.013356 0
-0.056984 0.012531 0
-0.060598 0.011519 0
-0.063873 0.010325 0
-0.066757 0.008953 0
-0.069204 0.007415 0
-0.071167 0.005722 0
-0.072605 0.003892 0
-0.073486 0.001947 0
-0.073780 -0.000085 0
-0.073470 -0.002172 0
-0.072546 -0.004276 0
-0.071008 -0.006356 0
-0.068871 -0.008366 0
-0.066159 -0.010260 0
-0.062910 -0.011990 0
-0.059175 -0.013509 0
-0.055017 -0.014772 0
-0.050511 -0.015742 0
-0.045741 -0.016385 0
-0.040801 -0.016677 0
-0.035789 -0.016604 0
-0.030807 -0.016164 0
-0.025958 -0.015366 0
-0.021340 -0.014235 0
-0.017044 -0.012807 0
-0.013151 -0.011134 0
-0.009726 -0.009280 0
-0.006816 -0.007326 0
-0.004449 -0.005367 0
-0.002629 -0.003511 0
-0.001333 -0.001886 0
-0.000514 -0.000640 0
-0.000101 0.000056 0
0.000000 0.000000 0
0.000000 0.000000 0
-0.000446 0.002052 0
-0.001695 0.004464 0
-0.003666 0.006991 0
-0.006282 0.009457 0
-0.009466 0.011741 0
-0.013142 0.013769 0
-0.017233 0.015500 0
-0.021664 0.016916 0
-0.026361 0.018015 0
-0.031252 0.018803 0
-0.036265 0.019291 0
-0.041334 0.019492 0
-0.046391 0.019417 0
-0.051374 0.019077 0
-0.056217 0.018478 0
-0.060861 0.017626 0
-0.065244 0.016525 0
-0.069307 0.015181 0
-0.072991 0.013600 0
-0.076241 0.011789 0
-0.079004 0.009763 0
-0.081231 0.007537 0
-0.082877 0.005135 0
-0.083905 0.002585 0
-0.084284 -0.000076 0
-0.083992 -0.002807 0
-0.083018 -0.005560 0
-0.081362 -0.008282 0
-0.079035 -0.010915 0
-0.076064 -0.013399 0
-0.072488 -0.015673 0
-0.068359 -0.017678 0
-0.063744 -0.019356 0
-0.058722 -0.020658 0
-0.053386 -0.021540 0
-0.047834 -0.021971 0
-0.042177 -0.021931 0
-0.036525 -0.021417 0
-0.030992 -0.020439 0
-0.025689 -0.019027 0
-0.020719 -0.017227 0
-0.016175 -0.015103 0
-0.012134 -0.012736 0
-0.008656 -0.010227 0
-0.005779 -0.007692 0
-0.003515 -0.005266 0
-0.001854 -0.003100 0
-0.000758 -0.001368 0
-0.000166 -0.000262 0
0.000000 0.000000 0
0.000000 0.000000 0
-0.000536 0.002982 0
-0.002017 0.006220 0
-0.004328 0.009477 0
-0.007362 0.012583 0
-0.011020 0.015421 0
-0.015210 0.017920 0
-0.019841 0.020040 0
-0.024829 0.021765 0
-0.030092 0.023097 0
-0.035551 0.024043 0
-0.041131 0.024619 0
-0.046760 0.024838 0
-0.052368 0.024714 0
-0.057886 0.024258 0
-0.063247 0.023479 0
-0.068386 0.022383 0
-0.073238 0.020977 0
-0.077739 0.019266 0
-0.081828 0.017259 0
-0.085445 0.014966 0
-0.088532 0.012404 0
-0.091037 0.009595 0
-0.092912 0.006566 0
-0.094115 0.003353 0
-0.094611 0.000002 0
-0.094377 -0.003438 0
-0.093397 -0.006907 0
-0.091668 -0.010339 0
-0.089200 -0.013664 0
-0.086017 -0.016808 0
-0.082159 -0.019696 0
-0.077678 -0.022253 0
-0.072643 -0.024409 0
-0.067137 -0.026100 0
-0.061256 -0.027273 0
-0.055109 -0.027886 0
-0.048811 -0.027914 0
-0.042485 -0.027348 0
-0.036257 -0.026202 0
-0.030249 -0.024508 0
-0.024580 -0.022321 0
-0.019355 -0.019718 0
-0.014667 -0.016799 0
-0.010589 -0.013682 0
-0.007170 -0.010508 0
-0.004438 -0.007436 0
-0.002391 -0.004644 0
-0.001006 -0.002328 0
-0.000231 -0.000702 0
0.000000 0.000000 0
0.000000 0.000000 0
-0.000622 0.004069 0
-0.002325 0.008255 0
-0.004962 0.012335 0
-0.008400 0.016149 0
-0.012519 0.019589 0
-0.017207 0.022590 0
-0.022362 0.025120 0
-0.027889 0.027167 0
-0.033699 0.028736 0
-0.039707 0.029842 0
-0.045833 0.030500 0
-0.052002 0.030729 0
-0.058140 0.030543 0
-0.064176 0.029956 0
-0.070039 0.028978 0
-0.075661 0.027616 0
-0.080974 0.025878 0
-0.085911 0.023771 0
-0.090407 0.021305 0
-0.094399 0.018493 0
-0.097827 0.015355 0
-0.100632 0.011917 0
-0.102765 0.008213 0
-0.104177 0.004285 0
-0.104833 0.000186 0
-0.104701 -0.004022 0
-0.103763 -0.008269 0
-0.102012 -0.012479 0
-0.099454 -0.016565 0
-0.096110 -0.020440 0
-0.092016 -0.024013 0
-0.087225 -0.027194 0
-0.081805 -0.029897 0
-0.075841 -0.032044 0
-0.069435 -0.033568 0
-0.062699 -0.034416 0
-0.055758 -0.034555 0
-0.048747 -0.033971 0
-0.041802 -0.032675 0
-0.035062 -0.030704 0
-0.028659 -0.028121 0
-0.022716 -0.025015 0
-0.017341 -0.021503 0
-0.012623 -0.017724 0
-0.008630 -0.013843 0
-0.005400 -0.010044 0
-0.002947 -0.006532 0
-0.001259 -0.003528 0
-0.000296 -0.001267 0
0.000000 0.000000 0
0.000000 -0.000000 0
-0.000703 0.005307 0
-0.002617 0.010559 0
-0.005566 0.015552 0
-0.009391 0.020140 0
-0.013951 0.024228 0
-0.019119 0.027763 0
-0.024778 0.030722 0
-0.030824 0.033101 0
-0.037160 0.034914 0
-0.043696 0.036178 0
-0.050349 0.036915 0
-0.057039 0.037145 0
-0.063690 0.036888 0
-0.070228 0.036157 0
-0.076581 0.034964 0
-0.082678 0.033318 0
-0.088449 0.031227 0
-0.093824 0.028699 0
-0.098736 0.025747 0
-0.103118 0.022386 0
-0.106907 0.018638 0
-0.110042 0.014533 0
-0.112467 0.010111 0
-0.114132 0.005422 0
-0.114993 0.000525 0
-0.115015 -0.004508 0
-0.114173 -0.009596 0
-0.112456 -0.014648 0
-0.109864 -0.019566 0
-0.106412 -0.024246 0
-0.102132 -0.028581 0
-0.097074 -0.032464 0
-0.091305 -0.035792 0
-0.084911 -0.038470 0
-0.077995 -0.040415 0
-0.070676 -0.041562 0
-0.063087 -0.041865 0
-0.055374 -0.041304 0
-0.047686 -0.039887 0
-0.040177 -0.037651 0
-0.032999 -0.034667 0
-0.026292 -0.031036 0
-0.020184 -0.026891 0
-0.014783 -0.022393 0
-0.010173 -0.017732 0
-0.006412 -0.013118 0
-0.003529 -0.008784 0
-0.001522 -0.004979 0
-0.000363 -0.001961 0
0.000000 0.000000 0
0.000000 -0.000000 0
-0.000780 0.006686 0
-0.002892 0.013118 0
-0.006136 0.019109 0
-0.010328 0.024535 0
-0.015308 0.029317 0
-0.020932 0.033417 0
-0.027073 0.036825 0
-0.033615 0.039548 0
-0.040454 0.041608 0
-0.047497 0.043031 0
-0.054655 0.043843 0
-0.061847 0.044070 0
-0.068994 0.043732 0
-0.076021 0.042847 0
-0.082854 0.041428 0
-0.089420 0.039484 0
-0.095648 0.037024 0
-0.101467 0.034058 0
-0.106807 0.030599 0
-0.111598 0.026665 0
-0.115775 0.022279 0
-0.119272 0.017477 0
-0.122030 0.012302 0
-0.123992 0.006810 0
-0.125110 0.001069 0
-0.125342 -0.004841 0
-0.124657 -0.010828 0
-0.123035 -0.016788 0
-0.120469 -0.022609 0
-0.116968 -0.028172 0
-0.112558 -0.033350 0
-0.107282 -0.038021 0
-0.101204 -0.042060 0
-0.094410 -0.045355 0
-0.087003 -0.047804 0
-0.079107 -0.049324 0
-0.070864 -0.049857 0
-0.062429 -0.049372 0
-0.053968 -0.047871 0
-0.045651 -0.045391 0
-0.037650 -0.042007 0
-0.030127 -0.037830 0
-0.023233 -0.033012 0
-0.017096 -0.027735 0
-0.011824 -0.022213 0
-0.007492 -0.016689 0
-0.004145 -0.011423 0
-0.001798 -0.006694 0
-0.000432 -0.002789 0
0.000000 0.000000 0
0.000000 -0.000000 0
-0.000851 0.008199 0
-0.003149 0.015916 0
-0.006669 0.022988 0
-0.011206 0.029312 0
-0.016581 0.034832 0
-0.022636 0.039527 0
-0.029231 0.043403 0
-0.036243 0.046483 0
-0.043560 0.048796 0
-0.051085 0.050379 0
-0.058727 0.051265 0
-0.066400 0.051484 0
-0.074026 0.051062 0
-0.081527 0.050016 0
-0.088830 0.048363 0
-0.095860 0.046112 0
-0.102546 0.043274 0
-0.108815 0.039858 0
-0.114596 0.035879 0
-0.119817 0.031354 0
-0.124409 0.026312 0
-0.128304 0.020788 0
-0.131437 0.014831 0
-0.133746 0.008501 0
-0.135176 0.001875 0
-0.135679 -0.004961 0
-0.135215 -0.011903 0
-0.133755 -0.018836 0
-0.131282 -0.025633 0
-0.127798 -0.032157 0
-0.123318 -0.038267 0
-0.117879 -0.043817 0
-0.111540 -0.048664 0
-0.104382 -0.052672 0
-0.096509 -0.055718 0
-0.088047 -0.057701 0
-0.079146 -0.058544 0
-0.069973 -0.058200 0
-0.060708 -0.056664 0
-0.051542 -0.053969 0
-0.042667 -0.050191 0
-0.034271 -0.045454 0
-0.026529 -0.039922 0
-0.019598 -0.033802 0
-0.013607 -0.027336 0
-0.008656 -0.020796 0
-0.004810 -0.014478 0
-0.002095 -0.008692 0
-0.000506 -0.003759 0
0.000000 -0.000000 0
0.000000 -0.000000 0
-0.000916 0.009836 0
-0.003387 0.018937 0
-0.007162 0.027166 0
-0.012020 0.034447 0
-0.017763 0.040746 0
-0.024219 0.046066 0
-0.031239 0.050431 0
-0.038690 0.053878 0
-0.046458 0.056452 0
-0.054438 0.058198 0
-0.062537 0.059158 0
-0.070669 0.059369 0
-0.078754 0.058859 0
-0.086714 0.057651 0
-0.094474 0.055761 0
-0.101962 0.053200 0
-0.109105 0.049979 0
-0.115830 0.046109 0
-0.122064 0.041602 0
-0.127735 0.036478 0
-0.132769 0.030766 0
-0.137097 0.024504 0
-0.140647 0.017744 0
-0.143354 0.010549 0
-0.145154 0.003002 0
-0.145991 -0.004802 0
-0.145815 -0.012752 0
-0.144588 -0.020721 0
-0.142283 -0.028566 0
-0.138887 -0.036136 0
-0.134408 -0.043269 0
-0.128871 -0.049798 0
-0.122327 -0.055557 0
-0.114851 -0.060386 0
-0.106544 -0.064138 0
-0.097536 -0.066687 0
-0.087982 -0.067932 0
-0.078057 -0.067811 0
-0.067961 -0.066302 0
-0.057904 -0.063432 0
-0.048103 -0.059277 0
-0.038772 -0.053968 0
-0.030118 -0.047685 0
-0.022326 -0.040656 0
-0.015554 -0.033155 0
-0.009928 -0.025487 0
-0.005535 -0.017984 0
-0.002419 -0.010998 0
-0.000586 -0.004884 0
0.000000 -0.000000 0
0.000000 0.000000 0
-0.000976 0.011586 0
-0.003604 0.022162 0
-0.007613 0.031620 0
-0.012763 0.039911 0
-0.018843 0.047031 0
-0.025668 0.053003 0
-0.033080 0.057875 0
-0.040939 0.061702 0
-0.049124 0.064544 0
-0.057529 0.066459 0
-0.066057 0.067496 0
-0.074622 0.067701 0
-0.083142 0.067106 0
-0.091541 0.065736 0
-0.099745 0.063611 0
-0.107681 0.060743 0
-0.115276 0.057142 0
-0.122459 0.052817 0
-0.129155 0.047783 0
-0.135291 0.042059 0
-0.140793 0.035673 0
-0.145586 0.028665 0
-0.149595 0.021088 0
-0.152748 0.013008 0
-0.154976 0.004512 0
-0.156211 -0.004299 0
-0.156395 -0.013305 0
-0.155476 -0.022368 0
-0.153416 -0.031334 0
-0.150189 -0.040033 0
-0.145788 -0.048284 0
-0.140228 -0.055898 0
-0.133547 -0.062684 0
-0.125811 -0.068454 0
-0.117118 -0.073032 0
-0.107595 -0.076264 0
-0.097401 -0.078023 0
-0.086723 -0.078221 0
-0.075775 -0.076818 0
-0.064789 -0.073828 0
-0.054009 -0.069323 0
-0.043681 -0.063438 0
-0.034044 -0.056368 0
-0.025318 -0.048366 0
-0.017695 -0.039734 0
-0.011329 -0.030816 0
-0.006335 -0.021987 0
-0.002778 -0.013640 0
-0.000676 -0.006179 0
0.000000 -0.000000 0
0.000000 0.000000 0
-0.001029 0.013440 0
-0.003798 0.025573 0
-0.008017 0.036325 0
-0.013430 0.045676 0
-0.019813 0.053652 0
-0.026973 0.060304 0
-0.034740 0.065702 0
-0.042970 0.069922 0
-0.051537 0.073042 0
-0.060332 0.075130 0
-0.069256 0.076251 0
-0.078223 0.076453 0
-0.087151 0.075778 0
-0.095965 0.074254 0
-0.104592 0.071900 0
-0.112960 0.068732 0
-0.120998 0.064757 0
-0.128635 0.059988 0
-0.135797 0.054434 0
-0.142410 0.048116 0
-0.148398 0.041060 0
-0.153684 0.033306 0
-0.158188 0.024906 0
-0.161834 0.015930 0
-0.164542 0.006465 0
-0.166239 -0.003383 0
-0.166853 -0.013487 0
-0.166321 -0.023699 0
-0.164590 -0.033853 0
-0.161618 -0.043764 0
-0.157384 -0.053230 0
-0.151886 -0.062040 0
-0.145149 -0.069974 0
-0.137227 -0.076815 0
-0.128209 -0.082355 0
-0.118217 -0.086404 0
-0.107412 -0.088804 0
-0.095991 -0.089437 0
-0.084180 -0.088237 0
-0.072236 -0.085198 0
-0.060430 -0.080385 0
-0.049043 -0.073932 0
-0.038350 -0.066048 0
-0.028612 -0.057006 0
-0.020059 -0.047144 0
-0.012882 -0.036846 0
-0.007225 -0.026536 0
-0.003177 -0.016657 0
-0.000776 -0.007662 0
0.000000 -0.000000 0
0.000000 0.000000 0
-0.001076 0.015384 0
-0.003967 0.029149 0
-0.008370 0.041252 0
-0.014014 0.051708 0
-0.020665 0.060574 0
-0.028120 0.067930 0
-0.036203 0.073873 0
-0.044764 0.078500 0
-0.053673 0.081906 0
-0.062818 0.084177 0
-0.072101 0.085387 0
-0.081433 0.085595 0
-0.090737 0.084848 0
-0.099935 0.083177 0
-0.108959 0.080607 0
-0.117738 0.077150 0
-0.126202 0.072817 0
-0.134282 0.067616 0
-0.141905 0.061558 0
-0.148998 0.054660 0
-0.155483 0.046947 0
-0.161281 0.038455 0
-0.166310 0.029238 0
-0.170486 0.019362 0
-0.173725 0.008917 0
-0.175942 -0.001988 0
-0.177055 -0.013223 0
-0.176988 -0.024632 0
-0.175671 -0.036037 0
-0.173048 -0.047238 0
-0.169077 -0.058016 0
-0.163739 -0.068133 0
-0.157042 -0.077343 0
-0.149023 -0.085394 0
-0.139759 -0.092043 0
-0.129364 -0.097060 0
-0.117997 -0.100249 0
-0.105859 -0.101453 0
-0.093192 -0.100573 0
-0.080271 -0.097578 0
-0.067400 -0.092516 0
-0.054895 -0.085518 0
-0.043075 -0.076799 0
-0.032244 -0.066657 0
-0.022678 -0.055464 0
-0.014609 -0.043650 0
-0.008218 -0.031691 0
-0.003626 -0.020089 0
-0.000889 -0.009356 0
0.000000 -0.000000 0
0.000000 0.000000 0
-0.001116 0.017407 0
-0.004111 0.032867 0
-0.008669 0.046371 0
-0.014510 0.057972 0
-0.021391 0.067758 0
-0.029099 0.075842 0
-0.037454 0.082346 0
-0.046301 0.087392 0
-0.055508 0.091095 0
-0.064959 0.093558 0
-0.074558 0.094866 0
-0.084215 0.095089 0
-0.093853 0.094280 0
-0.103400 0.092476 0
-0.112786 0.089703 0
-0.121944 0.085975 0
-0.130809 0.081302 0
-0.139311 0.075691 0
-0.147380 0.069150 0
-0.154945 0.061694 0
-0.161927 0.053343 0
-0.168246 0.044133 0
-0.173818 0.034111 0
-0.178554 0.023345 0
-0.182364 0.011921 0
-0.185154 -0.000053 0
-0.186830 -0.012441 0
-0.187303 -0.025083 0
-0.186488 -0.037794 0
-0.184308 -0.050358 0
-0.180705 -0.062539 0
-0.175636 -0.074075 0
-0.169089 -0.084690 0
-0.161081 -0.094098 0
-0.151671 -0.102014 0
-0.140961 -0.108166 0
-0.129103 -0.112309 0
-0.116298 -0.114242 0
-0.102799 -0.113825 0
-0.088901 -0.110990 0
-0.074938 -0.105761 0
-0.061267 -0.098257 0
-0.048250 -0.088698 0
-0.036245 -0.077403 0
-0.025578 -0.064779 0
-0.016531 -0.051306 0
-0.009330 -0.037519 0
-0.004130 -0.023986 0
-0.001017 -0.011288 0
0.000000 -0.000000 0
0.000000 0.000000 0
-0.001147 0.019495 0
-0.004226 0.036702 0
-0.008910 0.051651 0
-0.014912 0.064430 0
-0.021981 0.075163 0
-0.029899 0.083994 0
-0.038480 0.091075 0
-0.047565 0.096553 0
-0.057020 0.100564 0
-0.066729 0.103227 0
-0.076594 0.104642 0
-0.086527 0.104891 0
-0.096454 0.104033 0
-0.106302 0.102110 0
-0.116008 0.099151 0