# vtk DataFile Version 2.0
generated by CFD-lab course output (written by Tobias Neckel) 
ASCII

DATASET STRUCTURED_GRID
DIMENSIONS  51 51 1 
POINTS 2601 float

0.000000 0.000000 0
0.020000 0.000000 0
0.040000 0.000000 0
0.060000 0.000000 0
0.080000 0.000000 0
0.100000 0.000000 0
0.120000 0.000000 0
0.140000 0.000000 0
0.160000 0.000000 0
0.180000 0.000000 0
0.200000 0.000000 0
0.220000 0.000000 0
0.240000 0.000000 0
0.260000 0.000000 0
0.280000 0.000000 0
0.300000 0.000000 0
0.320000 0.000000 0
0.340000 0.000000 0
0.360000 0.000000 0
0.380000 0.000000 0
0.400000 0.000000 0
0.420000 0.000000 0
0.440000 0.000000 0
0.460000 0.000000 0
0.480000 0.000000 0
0.500000 0.000000 0
0.520000 0.000000 0
0.540000 0.000000 0
0.560000 0.000000 0
0.580000 0.000000 0
0.600000 0.000000 0
0.620000 0.000000 0
0.640000 0.000000 0
0.660000 0.000000 0
0.680000 0.000000 0
0.700000 0.000000 0
0.720000 0.000000 0
0.740000 0.000000 0
0.760000 0.000000 0
0.780000 0.000000 0
0.800000 0.000000 0
0.820000 0.000000 0
0.840000 0.000000 0
0.860000 0.000000 0
0.880000 0.000000 0
0.900000 0.000000 0
0.920000 0.000000 0
0.940000 0.000000 0
0.960000 0.000000 0
0.980000 0.000000 0
1.000000 0.000000 0
0.000000 0.020000 0
0.020000 0.020000 0
0.040000 0.020000 0
0.060000 0.020000 0
0.080000 0.020000 0
0.100000 0.020000 0
0.120000 0.020000 0
0.140000 0.020000 0
0.160000 0.020000 0
0.180000 0.020000 0
0.200000 0.020000 0
0.220000 0.020000 0
0.240000 0.020000 0
0.260000 0.020000 0
0.280000 0.020000 0
0.300000 0.020000 0
0.320000 0.020000 0
0.340000 0.020000 0
0.360000 0.020000 0
0.380000 0.020000 0
0.400000 0.020000 0
0.420000 0.020000 0
0.440000 0.020000 0
0.460000 0.020000 0
0.480000 0.020000 0
0.500000 0.020000 0
0.520000 0.020000 0
0.540000 0.020000 0
0.560000 0.020000 0
0.580000 0.020000 0
0.600000 0.020000 0
0.620000 0.020000 0
0.640000 0.020000 0
0.660000 0.020000 0
0.680000 0.020000 0
0.700000 0.020000 0
0.720000 0.020000 0
0.740000 0.020000 0
0.760000 0.020000 0
0.780000 0.020000 0
0.800000 0.020000 0
0.820000 0.020000 0
0.840000 0.020000 0
0.860000 0.020000 0
0.880000 0.020000 0
0.900000 0.020000 0
0.920000 0.020000 0
0.940000 0.020000 0
0.960000 0.020000 0
0.980000 0.020000 0
1.000000 0.020000 0
0.000000 0.040000 0
0.020000 0.040000 0
0.040000 0.040000 0
0.060000 0.040000 0
0.080000 0.040000 0
0.100000 0.040000 0
0.120000 0.040000 0
0.140000 0.040000 0
0.160000 0.040000 0
0.180000 0.040000 0
0.200000 0.040000 0
0.220000 0.040000 0
0.240000 0.040000 0
0.260000 0.040000 0
0.280000 0.040000 0
0.300000 0.040000 0
0.320000 0.040000 0
0.340000 0.040000 0
0.360000 0.040000 0
0.380000 0.040000 0
0.400000 0.040000 0
0.420000 0.040000 0
0.440000 0.040000 0
0.460000 0.040000 0
0.480000 0.040000 0
0.500000 0.040000 0
0.520000 0.040000 0
0.540000 0.040000 0
0.560000 0.040000 0
0.580000 0.040000 0
0.600000 0.040000 0
0.620000 0.040000 0
0.640000 0.040000 0
0.660000 0.040000 0
0.680000 0.040000 0
0.700000 0.040000 0
0.720000 0.040000 0
0.740000 0.040000 0
0.760000 0.040000 0
0.780000 0.040000 0
0.800000 0.040000 0
0.820000 0.040000 0
0.840000 0.040000 0
0.860000 0.040000 0
0.880000 0.040000 0
0.900000 0.040000 0
0.920000 0.040000 0
0.940000 0.040000 0
0.960000 0.040000 0
0.980000 0.040000 0
1.000000 0.040000 0
0.000000 0.060000 0
0.020000 0.060000 0
0.040000 0.060000 0
0.060000 0.060000 0
0.080000 0.060000 0
0.100000 0.060000 0
0.120000 0.060000 0
0.140000 0.060000 0
0.160000 0.060000 0
0.180000 0.060000 0
0.200000 0.060000 0
0.220000 0.060000 0
0.240000 0.060000 0
0.260000 0.060000 0
0.280000 0.060000 0
0.300000 0.060000 0
0.320000 0.060000 0
0.340000 0.060000 0
0.360000 0.060000 0
0.380000 0.060000 0
0.400000 0.060000 0
0.420000 0.060000 0
0.440000 0.060000 0
0.460000 0.060000 0
0.480000 0.060000 0
0.500000 0.060000 0
0.520000 0.060000 0
0.540000 0.060000 0
0.560000 0.060000 0
0.580000 0.060000 0
0.600000 0.060000 0
0.620000 0.060000 0
0.640000 0.060000 0
0.660000 0.060000 0
0.680000 0.060000 0
0.700000 0.060000 0
0.720000 0.060000 0
0.740000 0.060000 0
0.760000 0.060000 0
0.780000 0.060000 0
0.800000 0.060000 0
0.820000 0.060000 0
0.840000 0.060000 0
0.860000 0.060000 0
0.880000 0.060000 0
0.900000 0.060000 0
0.920000 0.060000 0
0.940000 0.060000 0
0.960000 0.060000 0
0.980000 0.060000 0
1.000000 0.060000 0
0.000000 0.080000 0
0.020000 0.080000 0
0.040000 0.080000 0
0.060000 0.080000 0
0.080000 0.080000 0
0.100000 0.080000 0
0.120000 0.080000 0
0.140000 0.080000 0
0.160000 0.080000 0
0.180000 0.080000 0
0.200000 0.080000 0
0.220000 0.080000 0
0.240000 0.080000 0
0.260000 0.080000 0
0.280000 0.080000 0
0.300000 0.080000 0
0.320000 0.080000 0
0.340000 0.080000 0
0.360000 0.080000 0
0.380000 0.080000 0
0.400000 0.080000 0
0.420000 0.080000 0
0.440000 0.080000 0
0.460000 0.080000 0
0.480000 0.080000 0
0.500000 0.080000 0
0.520000 0.080000 0
0.540000 0.080000 0
0.560000 0.080000 0
0.580000 0.080000 0
0.600000 0.080000 0
0.620000 0.080000 0
0.640000 0.080000 0
0.660000 0.080000 0
0.680000 0.080000 0
0.700000 0.080000 0
0.720000 0.080000 0
0.740000 0.080000 0
0.760000 0.080000 0
0.780000 0.080000 0
0.800000 0.080000 0
0.820000 0.080000 0
0.840000 0.080000 0
0.860000 0.080000 0
0.880000 0.080000 0
0.900000 0.080000 0
0.920000 0.080000 0
0.940000 0.080000 0
0.960000 0.080000 0
0.980000 0.080000 0
1.000000 0.080000 0
0.000000 0.100000 0
0.020000 0.100000 0
0.040000 0.100000 0
0.060000 0.100000 0
0.080000 0.100000 0
0.100000 0.100000 0
0.120000 0.100000 0
0.140000 0.100000 0
0.160000 0.100000 0
0.180000 0.100000 0
0.200000 0.100000 0
0.220000 0.100000 0
0.240000 0.100000 0
0.260000 0.100000 0
0.280000 0.100000 0
0.300000 0.100000 0
0.320000 0.100000 0
0.340000 0.100000 0
0.360000 0.100000 0
0.380000 0.100000 0
0.400000 0.100000 0
0.420000 0.100000 0
0.440000 0.100000 0
0.460000 0.100000 0
0.480000 0.100000 0
0.500000 0.100000 0
0.520000 0.100000 0
0.540000 0.100000 0
0.560000 0.100000 0
0.580000 0.100000 0
0.600000 0.100000 0
0.620000 0.100000 0
0.640000 0.100000 0
0.660000 0.100000 0
0.680000 0.100000 0
0.700000 0.100000 0
0.720000 0.100000 0
0.740000 0.100000 0
0.760000 0.100000 0
0.780000 0.100000 0
0.800000 0.100000 0
0.820000 0.100000 0
0.840000 0.100000 0
0.860000 0.100000 0
0.880000 0.100000 0
0.900000 0.100000 0
0.920000 0.100000 0
0.940000 0.100000 0
0.960000 0.100000 0
0.980000 0.100000 0
1.000000 0.100000 0
0.000000 0.120000 0
0.020000 0.120000 0
0.040000 0.120000 0
0.060000 0.120000 0
0.080000 0.120000 0
0.100000 0.120000 0
0.120000 0.120000 0
0.140000 0.120000 0
0.160000 0.120000 0
0.180000 0.120000 0
0.200000 0.120000 0
0.220000 0.120000 0
0.240000 0.120000 0
0.260000 0.120000 0
0.280000 0.120000 0
0.300000 0.120000 0
0.320000 0.120000 0
0.340000 0.120000 0
0.360000 0.120000 0
0.380000 0.120000 0
0.400000 0.120000 0
0.420000 0.120000 0
0.440000 0.120000 0
0.460000 0.120000 0
0.480000 0.120000 0
0.500000 0.120000 0
0.520000 0.120000 0
0.540000 0.120000 0
0.560000 0.120000 0
0.580000 0.120000 0
0.600000 0.120000 0
0.620000 0.120000 0
0.640000 0.120000 0
0.660000 0.120000 0
0.680000 0.120000 0
0.700000 0.120000 0
0.720000 0.120000 0
0.740000 0.120000 0
0.760000 0.120000 0
0.780000 0.120000 0
0.800000 0.120000 0
0.820000 0.120000 0
0.840000 0.120000 0
0.860000 0.120000 0
0.880000 0.120000 0
0.900000 0.120000 0
0.920000 0.120000 0
0.940000 0.120000 0
0.960000 0.120000 0
0.980000 0.120000 0
1.000000 0.120000 0
0.000000 0.140000 0
0.020000 0.140000 0
0.040000 0.140000 0
0.060000 0.140000 0
0.080000 0.140000 0
0.100000 0.140000 0
0.120000 0.140000 0
0.140000 0.140000 0
0.160000 0.140000 0
0.180000 0.140000 0
0.200000 0.140000 0
0.220000 0.140000 0
0.240000 0.140000 0
0.260000 0.140000 0
0.280000 0.140000 0
0.300000 0.140000 0
0.320000 0.140000 0
0.340000 0.140000 0
0.360000 0.140000 0
0.380000 0.140000 0
0.400000 0.140000 0
0.420000 0.140000 0
0.440000 0.140000 0
0.460000 0.140000 0
0.480000 0.140000 0
0.500000 0.140000 0
0.520000 0.140000 0
0.540000 0.140000 0
0.560000 0.140000 0
0.580000 0.140000 0
0.600000 0.140000 0
0.620000 0.140000 0
0.640000 0.140000 0
0.660000 0.140000 0
0.680000 0.140000 0
0.700000 0.140000 0
0.720000 0.140000 0
0.740000 0.140000 0
0.760000 0.140000 0
0.780000 0.140000 0
0.800000 0.140000 0
0.820000 0.140000 0
0.840000 0.140000 0
0.860000 0.140000 0
0.880000 0.140000 0
0.900000 0.140000 0
0.920000 0.140000 0
0.940000 0.140000 0
0.960000 0.140000 0
0.980000 0.140000 0
1.000000 0.140000 0
0.000000 0.160000 0
0.020000 0.160000 0
0.040000 0.160000 0
0.060000 0.160000 0
0.080000 0.160000 0
0.100000 0.160000 0
0.120000 0.160000 0
0.140000 0.160000 0
0.160000 0.160000 0
0.180000 0.160000 0
0.200000 0.160000 0
0.220000 0.160000 0
0.240000 0.160000 0
0.260000 0.160000 0
0.280000 0.160000 0
0.300000 0.160000 0
0.320000 0.160000 0
0.340000 0.160000 0
0.360000 0.160000 0
0.380000 0.160000 0
0.400000 0.160000 0
0.420000 0.160000 0
0.440000 0.160000 0
0.460000 0.160000 0
0.480000 0.160000 0
0.500000 0.160000 0
0.520000 0.160000 0
0.540000 0.160000 0
0.560000 0.160000 0
0.580000 0.160000 0
0.600000 0.160000 0
0.620000 0.160000 0
0.640000 0.160000 0
0.660000 0.160000 0
0.680000 0.160000 0
0.700000 0.160000 0
0.720000 0.160000 0
0.740000 0.160000 0
0.760000 0.160000 0
0.780000 0.160000 0
0.800000 0.160000 0
0.820000 0.160000 0
0.840000 0.160000 0
0.860000 0.160000 0
0.880000 0.160000 0
0.900000 0.160000 0
0.920000 0.160000 0
0.940000 0.160000 0
0.960000 0.160000 0
0.980000 0.160000 0
1.000000 0.160000 0
0.000000 0.180000 0
0.020000 0.180000 0
0.040000 0.180000 0
0.060000 0.180000 0
0.080000 0.180000 0
0.100000 0.180000 0
0.120000 0.180000 0
0.140000 0.180000 0
0.160000 0.180000 0
0.180000 0.180000 0
0.200000 0.180000 0
0.220000 0.180000 0
0.240000 0.180000 0
0.260000 0.180000 0
0.280000 0.180000 0
0.300000 0.180000 0
0.320000 0.180000 0
0.340000 0.180000 0
0.360000 0.180000 0
0.380000 0.180000 0
0.400000 0.180000 0
0.420000 0.180000 0
0.440000 0.180000 0
0.460000 0.180000 0
0.480000 0.180000 0
0.500000 0.180000 0
0.520000 0.180000 0
0.540000 0.180000 0
0.560000 0.180000 0
0.580000 0.180000 0
0.600000 0.180000 0
0.620000 0.180000 0
[...]
POINT_DATA 2601 

VECTORS velocity float
0.000000 0.000000 0
0.000000 0.000000 0
0.000001 0.000000 0
0.000001 0.000000 0
0.000000 0.000000 0
0.000000 0.000000 0
-0.000000 0.000000 0
-0.000000 0.000000 0
-0.000000 0.000000 0
-0.000000 0.000000 0
-0.000000 0.000000 0
0.000000 0.000000 0
0.000000 0.000000 0
0.000000 0.000000 0
0.000000 0.000000 0
0.000000 0.000000 0
-0.000000 0.000000 0
-0.000000 0.000000 0
-0.000000 0.000000 0
-0.000000 0.000000 0
-0.000000 0.000000 0
-0.000000 0.000000 0
-0.000000 0.000000 0
-0.000000 0.000000 0
-0.000000 0.000000 0
-0.000000 0.000000 0
-0.000000 0.000000 0
-0.000000 0.000000 0
-0.000000 0.000000 0
-0.000000 0.000000 0
-0.000000 0.000000 0
-0.000000 0.000000 0
-0.000000 0.000000 0
-0.000000 0.000000 0
-0.000000 0.000000 0
-0.000000 0.000000 0
-0.000000 0.000000 0
-0.000000 0.000000 0
-0.000000 0.000000 0
-0.000000 0.000000 0
-0.000000 0.000000 0
0.000000 0.000000 0
0.000000 0.000000 0
0.000000 0.000000 0
0.000000 0.000000 0
0.000000 0.000000 0
0.000000 0.000000 0
0.000000 0.000000 0
0.000000 0.000000 0
0.000000 0.000000 0
0.000000 0.000000 0
0.000000 0.000000 0
0.000060 -0.000059 0
0.000081 -0.000022 0
-0.000014 0.000056 0
-0.000255 0.000144 0
-0.000644 0.000227 0
-0.001168 0.000300 0
-0.001809 0.000361 0
-0.002548 0.000409 0
-0.003363 0.000447 0
-0.004236 0.000473 0
-0.005149 0.000491 0
-0.006085 0.000500 0
-0.007031 0.000502 0
-0.007972 0.000496 0
-0.008895 0.000484 0
-0.009787 0.000465 0
-0.010636 0.000440 0
-0.011430 0.000408 0
-0.012156 0.000370 0
-0.012802 0.000325 0
-0.013355 0.000273 0
-0.013805 0.000215 0
-0.014139 0.000151 0
-0.014349 0.000082 0
-0.014425 0.000009 0
-0.014362 -0.000067 0
-0.014156 -0.000146 0
-0.013807 -0.000223 0
-0.013316 -0.000299 0
-0.012690 -0.000371 0
-0.011938 -0.000437 0
-0.011073 -0.000494 0
-0.010113 -0.000541 0
-0.009078 -0.000576 0
-0.007991 -0.000598 0
-0.006877 -0.000604 0
-0.005763 -0.000596 0
-0.004677 -0.000572 0
-0.003645 -0.000533 0
-0.002694 -0.000480 0
-0.001847 -0.000414 0
-0.001125 -0.000338 0
-0.000542 -0.000255 0
-0.000110 -0.000167 0
0.000169 -0.000080 0
0.000301 0.000001 0
0.000303 0.000066 0
0.000211 0.000099 0
0.000082 0.000082 0
0.000000 -0.000000 0
0.000000 0.000001 0
0.000024 -0.000080 0
-0.000075 0.000076 0
-0.000385 0.000337 0
-0.000942 0.000629 0
-0.001748 0.000912 0
-0.002787 0.001165 0
-0.004030 0.001379 0
-0.005444 0.001553 0
-0.006996 0.001688 0
-0.008652 0.001786 0
-0.010380 0.001850 0
-0.012150 0.001883 0
-0.013935 0.001887 0
-0.015709 0.001864 0
-0.017446 0.001815 0
-0.019122 0.001742 0
-0.020714 0.001643 0
-0.022199 0.001520 0
-0.023552 0.001372 0
-0.024751 0.001199 0
-0.025773 0.001003 0
-0.026598 0.000784 0
-0.027207 0.000544 0
-0.027581 0.000286 0
-0.027708 0.000014 0
-0.027575 -0.000269 0
-0.027179 -0.000555 0
-0.026519 -0.000841 0
-0.025599 -0.001117 0
-0.024432 -0.001378 0
-0.023035 -0.001616 0
-0.021433 -0.001824 0
-0.019657 -0.001995 0
-0.017744 -0.002122 0
-0.015734 -0.002201 0
-0.013673 -0.002228 0
-0.011608 -0.002200 0
-0.009589 -0.002118 0
-0.007663 -0.001983 0
-0.005877 -0.001798 0
-0.004272 -0.001570 0
-0.002883 -0.001305 0
-0.001737 -0.001015 0
-0.000853 -0.000711 0
-0.000235 -0.000411 0
0.000128 -0.000134 0
0.000265 0.000089 0
0.000229 0.000222 0
0.000102 0.000211 0
0.000000 -0.000000 0
0.000000 0.000001 0
-0.000056 0.000017 0
-0.000349 0.000387 0
-0.000945 0.000922 0
-0.001872 0.001506 0
-0.003126 0.002071 0
-0.004684 0.002582 0
-0.006511 0.003019 0
-0.008564 0.003376 0
-0.010799 0.003655 0
-0.013173 0.003857 0
-0.015643 0.003989 0
-0.018168 0.004055 0
-0.020709 0.004060 0
-0.023229 0.004007 0
-0.025694 0.003897 0
-0.028068 0.003734 0
-0.030318 0.003516 0
-0.032411 0.003245 0
-0.034314 0.002922 0
-0.035995 0.002546 0
-0.037424 0.002121 0
-0.038572 0.001649 0
-0.039412 0.001134 0
-0.039923 0.000583 0
-0.040085 0.000003 0
-0.039886 -0.000596 0
-0.039319 -0.001202 0
-0.038384 -0.001804 0
-0.037090 -0.002386 0
-0.035453 -0.002935 0
-0.033498 -0.003435 0
-0.031260 -0.003872 0
-0.028779 -0.004231 0
-0.026106 -0.004500 0
-0.023297 -0.004669 0
-0.020411 -0.004730 0
-0.017514 -0.004680 0
-0.014672 -0.004517 0
-0.011948 -0.004245 0
-0.009404 -0.003872 0
-0.007097 -0.003409 0
-0.005075 -0.002873 0
-0.003373 -0.002284 0
-0.002017 -0.001669 0
-0.001012 -0.001061 0
-0.000348 -0.000499 0
0.000009 -0.000036 0
0.000121 0.000262 0
0.000076 0.000311 0
0.000000 -0.000000 0
0.000000 0.000001 0
-0.000153 0.000269 0
-0.000674 0.000964 0
-0.001597 0.001859 0
-0.002929 0.002809 0
-0.004653 0.003724 0
-0.006738 0.004549 0
-0.009139 0.005259 0
-0.011807 0.005843 0
-0.014691 0.006298 0
-0.017736 0.006630 0
-0.020893 0.006844 0
-0.024111 0.006948 0
-0.027343 0.006948 0
-0.030544 0.006849 0
-0.033667 0.006654 0
-0.036671 0.006366 0
-0.039514 0.005986 0
-0.042153 0.005516 0
-0.044548 0.004956 0
-0.046659 0.004309 0
-0.048450 0.003580 0
-0.049885 0.002772 0
-0.050932 0.001895 0
-0.051564 0.000959 0
-0.051760 -0.000023 0
-0.051504 -0.001035 0
-0.050790 -0.002057 0
-0.049617 -0.003069 0
-0.047998 -0.004048 0
-0.045952 -0.004970 0
-0.043511 -0.005810 0
-0.040716 -0.006543 0
-0.037617 -0.007148 0
-0.034274 -0.007605 0
-0.030755 -0.007896 0
-0.027133 -0.008010 0
-0.023487 -0.007940 0
-0.019894 -0.007685 0
-0.016435 -0.007250 0
-0.013183 -0.006648 0
-0.010207 -0.005899 0
-0.007565 -0.005029 0
-0.005304 -0.004073 0
-0.003454 -0.003072 0
-0.002026 -0.002079 0
-0.001011 -0.001156 0
-0.000376 -0.000380 0
-0.000060 0.000156 0
0.000025 0.000332 0
0.000000 0.000000 0
0.000000 0.000000 0
-0.000253 0.000691 0
-0.001016 0.001830 0
-0.002285 0.003176 0
-0.004040 0.004561 0
-0.006248 0.005880 0
-0.008863 0.007068 0
-0.011833 0.008089 0
-0.015100 0.008928 0
-0.018605 0.009584 0
-0.022288 0.010060 0
-0.026090 0.010364 0
-0.029956 0.010505 0
-0.033829 0.010492 0
-0.037657 0.010330 0
-0.041387 0.010025 0
-0.044970 0.009580 0
-0.048355 0.008998 0
-0.051494 0.008279 0
-0.054340 0.007428 0
-0.056847 0.006449 0
-0.058971 0.005347 0
-0.060672 0.004131 0
-0.061914 0.002814 0
-0.062666 0.001411 0
-0.062903 -0.000057 0
-0.062609 -0.001566 0
-0.061775 -0.003089 0
-0.060402 -0.004595 0
-0.058504 -0.006051 0
-0.056103 -0.007422 0
-0.053236 -0.008672 0
-0.049948 -0.009766 0
-0.046297 -0.010672 0
-0.042352 -0.011361 0
-0.038188 -0.011809 0
-0.033891 -0.011998 0
-0.029550 -0.011919 0
-0.025254 -0.011569 0
-0.021095 -0.010956 0
-0.017160 -0.010100 0
-0.013528 -0.009026 0
-0.010269 -0.007775 0
-0.007437 -0.006395 0
-0.005071 -0.004947 0
-0.003189 -0.003503 0
-0.001786 -0.002149 0
-0.000834 -0.000987 0
-0.000278 -0.000138 0
-0.000036 0.000251 0
0.000000 0.000000 0
0.000000 -0.000000 0
-0.000351 0.001285 0
-0.001359 0.002995 0
-0.002979 0.004883 0
-0.005163 0.006772 0
-0.007857 0.008547 0
-0.011002 0.010135 0
-0.014534 0.011497 0
-0.018386 0.012615 0
-0.022491 0.013486 0
-0.026785 0.014115 0
-0.031201 0.014511 0
-0.035678 0.014686 0
-0.040154 0.014649 0
-0.044570 0.014407 0
-0.048867 0.013967 0
-0.052990 0.013334 0
-0.056883 0.012511 0
-0.060491 0.011501 0
-0.063760 0.010309 0
-0.066641 0.008940 0
-0.069084 0.007405 0
-0.071045 0.005715 0
-0.072483 0.003889 0
-0.073363 0.001948 0
-0.073659 -0.000080 0
-0.073351 -0.002164 0
-0.072430 -0.004264 0
-0.070897 -0.006340 0
-0.068764 -0.008347 0
-0.066058 -0.010238 0
-0.062816 -0.011965 0
-0.059089 -0.013482 0
-0.054939 -0.014745 0
-0.050441 -0.015713 0
-0.045680 -0.016356 0
-0.040748 -0.016649 0
-0.035744 -0.016577 0
-0.030770 -0.016139 0
-0.025928 -0.015344 0
-0.021317 -0.014216 0
-0.017027 -0.012791 0
-0.013138 -0.011121 0
-0.009717 -0.009271 0
-0.006811 -0.007320 0
-0.004447 -0.005364 0
-0.002628 -0.003510 0
-0.001332 -0.001887 0
-0.000514 -0.000642 0
-0.000101 0.000054 0
0.000000 0.000000 0
0.000000 -0.000000 0
-0.000446 0.002049 0
-0.001693 0.004457 0
-0.003660 0.006980 0
-0.006270 0.009441 0
-0.009448 0.011721 0
-0.013117 0.013745 0
-0.017200 0.015473 0
-0.021623 0.016886 0
-0.026312 0.017983 0
-0.031193 0.018769 0
-0.036197 0.019257 0
-0.041257 0.019458 0
-0.046306 0.019384 0
-0.051279 0.019044 0
-0.056115 0.018446 0
-0.060751 0.017596 0
-0.065127 0.016498 0
-0.069183 0.015157 0
-0.072862 0.013579 0
-0.076108 0.011773 0
-0.078868 0.009750 0
-0.081092 0.007529 0
-0.082738 0.005132 0
-0.083765 0.002587 0
-0.084146 -0.000069 0
-0.083856 -0.002795 0
-0.082886 -0.005544 0
-0.081234 -0.008261 0
-0.078914 -0.010890 0
-0.075949 -0.013370 0
-0.072380 -0.015641 0
-0.068259 -0.017644 0
-0.063653 -0.019320 0
-0.058640 -0.020621 0
-0.053313 -0.021503 0
-0.047771 -0.021934 0
-0.042122 -0.021896 0
-0.036479 -0.021384 0
-0.030955 -0.020410 0
-0.025659 -0.019001 0
-0.020696 -0.017205 0
-0.016158 -0.015085 0
-0.012122 -0.012723 0
-0.008649 -0.010218 0
-0.005774 -0.007687 0
-0.003513 -0.005264 0
-0.001853 -0.003101 0
-0.000757 -0.001370 0
-0.000166 -0.000263 0
0.000000 0.000000 0
0.000000 -0.000000 0
-0.000536 0.002977 0
-0.002014 0.006209 0
-0.004319 0.009461 0
-0.007347 0.012561 0
-0.010998 0.015394 0
-0.015180 0.017888 0
-0.019803 0.020004 0
-0.024781 0.021726 0
-0.030034 0.023055 0
-0.035483 0.024000 0
-0.041053 0.024575 0
-0.046672 0.024794 0
-0.052270 0.024671 0
-0.057779 0.024216 0
-0.063131 0.023439 0
-0.068262 0.022346 0
-0.073106 0.020943 0
-0.077601 0.019236 0
-0.081684 0.017233 0
-0.085296 0.014946 0
-0.088380 0.012389 0
-0.090883 0.009585 0
-0.092756 0.006562 0
-0.093959 0.003356 0
-0.094457 0.000010 0
-0.094226 -0.003423 0
-0.093249 -0.006886 0
-0.091525 -0.010312 0
-0.089063 -0.013632 0
-0.085888 -0.016772 0
-0.082038 -0.019656 0
-0.077565 -0.022209 0
-0.072540 -0.024363 0
-0.067043 -0.026053 0
-0.061173 -0.027226 0
-0.055035 -0.027840 0
-0.048747 -0.027869 0
-0.042431 -0.027307 0
-0.036212 -0.026164 0
-0.030213 -0.024474 0
-0.024552 -0.022292 0
-0.019334 -0.019694 0
-0.014652 -0.016780 0
-0.010578 -0.013669 0
-0.007163 -0.010499 0
-0.004434 -0.007432 0
-0.002390 -0.004643 0
-0.001005 -0.002329 0
-0.000231 -0.000704 0
0.000000 0.000000 0
0.000000 -0.000000 0
-0.000622 0.004062 0
-0.002321 0.008241 0
-0.004952 0.012314 0
-0.008383 0.016120 0
-0.012494 0.019554 0
-0.017173 0.022549 0
-0.022318 0.025074 0
-0.027835 0.027117 0
-0.033634 0.028684 0
-0.039631 0.029788 0
-0.045746 0.030446 0
-0.051905 0.030675 0
-0.058032 0.030490 0
-0.064057 0.029905 0
-0.069911 0.028929 0
-0.075524 0.027571 0
-0.080829 0.025837 0
-0.085759 0.023735 0
-0.090249 0.021274 0
-0.094236 0.018468 0
-0.097660 0.015337 0
-0.100463 0.011906 0
-0.102595 0.008208 0
-0.104008 0.004288 0
-0.104664 0.000197 0
-0.104535 -0.004004 0
-0.103601 -0.008244 0
-0.101855 -0.012446 0
-0.099304 -0.016527 0
-0.095967 -0.020396 0
-0.091882 -0.023964 0
-0.087100 -0.027142 0
-0.081690 -0.029842 0
-0.075736 -0.031987 0
-0.069340 -0.033511 0
-0.062615 -0.034360 0
-0.055685 -0.034500 0
-0.048685 -0.033919 0
-0.041750 -0.032628 0
-0.035019 -0.030662 0
-0.028625 -0.028084 0
-0.022690 -0.024985 0
-0.017322 -0.021478 0
-0.012610 -0.017706 0
-0.008621 -0.013831 0
-0.005394 -0.010037 0
-0.002945 -0.006529 0
-0.001258 -0.003528 0
-0.000296 -0.001269 0
0.000000 -0.000000 0
0.000000 -0.000000 0
-0.000702 0.005297 0
-0.002612 0.010541 0
-0.005554 0.015524 0
-0.009372 0.020103 0
-0.013923 0.024184 0
-0.019081 0.027712 0
-0.024729 0.030665 0
-0.030764 0.033041 0
-0.037088 0.034851 0
-0.043613 0.036113 0
-0.050254 0.036849 0
-0.056932 0.037080 0
-0.063572 0.036824 0
-0.070099 0.036095 0
-0.076442 0.034906 0
-0.082530 0.033264 0
-0.088292 0.031178 0
-0.093660 0.028656 0
-0.098566 0.025711 0
-0.102943 0.022356 0
-0.106728 0.018616 0
-0.109861 0.014520 0
-0.112285 0.010106 0
-0.113949 0.005426 0
-0.114811 0.000538 0
-0.114836 -0.004486 0
-0.113999 -0.009566 0
-0.112287 -0.014610 0
-0.109701 -0.019520 0
-0.106257 -0.024194 0
-0.101986 -0.028523 0
-0.096937 -0.032402 0
-0.091179 -0.035726 0
-0.084796 -0.038402 0
-0.077890 -0.040347 0
-0.070583 -0.041495 0
-0.063005 -0.041800 0
-0.055303 -0.041242 0
-0.047626 -0.039829 0
-0.040128 -0.037599 0
-0.032959 -0.034622 0
-0.026261 -0.030998 0
-0.020161 -0.026860 0
-0.014766 -0.022369 0
-0.010162 -0.017715 0
-0.006406 -0.013108 0
-0.003525 -0.008779 0
-0.001520 -0.004977 0
-0.000362 -0.001962 0
0.000000 -0.000000 0
0.000000 -0.000000 0
-0.000778 0.006674 0
-0.002886 0.013094 0
-0.006123 0.019074 0
-0.010307 0.024489 0
-0.015278 0.029262 0
-0.020891 0.033355 0
-0.027020 0.036757 0
-0.033549 0.039476 0
-0.040376 0.041533 0
-0.047407 0.042954 0
-0.054553 0.043766 0
-0.061732 0.043993 0
-0.068868 0.043657 0
-0.075883 0.042775 0
-0.082706 0.041360 0
-0.089262 0.039421 0
-0.095482 0.036967 0
-0.101293 0.034008 0
-0.106627 0.030557 0
-0.111413 0.026631 0
-0.115586 0.022255 0
-0.119080 0.017462 0
-0.121836 0.012297 0
-0.123799 0.006815 0
-0.124918 0.001084 0
-0.125153 -0.004816 0
-0.124472 -0.010793 0
-0.122855 -0.016744 0
-0.120296 -0.022557 0
-0.116802 -0.028112 0
-0.112400 -0.033284 0
-0.107134 -0.037948 0
-0.101067 -0.041984 0
-0.094284 -0.045276 0
-0.086888 -0.047724 0
-0.079004 -0.049245 0
-0.070773 -0.049780 0
-0.062350 -0.049299 0
-0.053900 -0.047803 0
-0.045595 -0.045329 0
-0.037605 -0.041951 0
-0.030091 -0.037783 0
-0.023205 -0.032973 0
-0.017076 -0.027705 0
-0.011810 -0.022191 0
-0.007483 -0.016674 0
-0.004141 -0.011415 0
-0.001796 -0.006691 0
-0.000431 -0.002789 0
0.000000 -0.000000 0
0.000000 0.000000 0
-0.000849 0.008184 0
-0.003143 0.015886 0
-0.006655 0.022945 0
-0.011184 0.029257 0
-0.016549 0.034767 0
-0.022592 0.039454 0
-0.029175 0.043324 0
-0.036173 0.046398 0
-0.043478 0.048708 0
-0.050990 0.050289 0
-0.058618 0.051175 0
-0.066279 0.051395 0
-0.073893 0.050975 0
-0.081382 0.049933 0
-0.088674 0.048285 0
-0.095695 0.046040 0
-0.102372 0.043209 0
-0.108634 0.039801 0
-0.114408 0.035830 0
-0.119624 0.031316 0
-0.124212 0.026283 0
-0.128103 0.020770 0
-0.131235 0.014825 0
-0.133544 0.008507 0
-0.134975 0.001892 0
-0.135481 -0.004932 0
-0.135020 -0.011863 0
-0.133565 -0.018786 0
-0.131099 -0.025573 0
-0.127622 -0.032089 0
-0.123151 -0.038191 0
-0.117722 -0.043735 0
-0.111394 -0.048577 0
-0.104246 -0.052581 0
-0.096385 -0.055627 0
-0.087935 -0.057610 0
-0.079047 -0.058454 0
-0.069886 -0.058115 0
-0.060633 -0.056584 0
-0.051479 -0.053895 0
-0.042615 -0.050126 0
-0.034230 -0.045397 0
-0.026498 -0.039875 0
-0.019575 -0.033765 0
-0.013592 -0.027308 0
-0.008647 -0.020777 0
-0.004804 -0.014466 0
-0.002093 -0.008687 0
-0.000505 -0.003758 0
0.000000 -0.000000 0
0.000000 0.000000 0
-0.000914 0.009817 0
-0.003380 0.018901 0
-0.007148 0.027115 0
-0.011996 0.034382 0
-0.017728 0.040670 0
-0.024172 0.045981 0
-0.031179 0.050338 0
-0.038618 0.053780 0
-0.046372 0.056350 0
-0.054338 0.058095 0
-0.062424 0.059055 0
-0.070543 0.059267 0
-0.078616 0.058760 0
-0.086564 0.057557 0
-0.094313 0.055672 0
-0.101792 0.053119 0
-0.108926 0.049906 0
-0.115643 0.046044 0
-0.121870 0.041547 0
-0.127535 0.036435 0
-0.132566 0.030734 0
-0.136890 0.024485 0
-0.140439 0.017737 0
-0.143145 0.010556 0
-0.144947 0.003021 0
-0.145786 -0.004771 0
-0.145614 -0.012708 0
-0.144392 -0.020665 0
-0.142092 -0.028500 0
-0.138704 -0.036060 0
-0.134233 -0.043184 0
-0.128705 -0.049706 0
-0.122172 -0.055460 0
-0.114707 -0.060285 0
-0.106412 -0.064035 0
-0.097417 -0.066583 0
-0.087875 -0.067830 0
-0.077963 -0.067712 0
-0.067880 -0.066209 0
-0.057835 -0.063346 0
-0.048046 -0.059200 0
-0.038727 -0.053901 0
-0.030083 -0.047628 0
-0.022300 -0.040611 0
-0.015537 -0.033120 0
-0.009917 -0.025462 0
-0.005528 -0.017969 0
-0.002417 -0.010990 0
-0.000586 -0.004882 0
0.000000 -0.000000 0
0.000000 0.000000 0
-0.000974 0.011564 0
-0.003597 0.022120 0
-0.007598 0.031560 0
-0.012738 0.039836 0
-0.018807 0.046943 0
-0.025620 0.052905 0
-0.033019 0.057769 0
-0.040864 0.061591 0
-0.049036 0.064429 0
-0.057427 0.066342 0
-0.065941 0.067380 0
-0.074493 0.067586 0
-0.083001 0.066995 0
-0.091388 0.065631 0
-0.099581 0.063513 0
-0.107507 0.060652 0
-0.115093 0.057060 0
-0.122268 0.052745 0
-0.128958 0.047723 0
-0.135089 0.042011 0
-0.140586 0.035638 0
-0.145376 0.028644 0
-0.149383 0.021080 0
-0.152536 0.013015 0
-0.154764 0.004533 0
-0.156002 -0.004265 0
-0.156189 -0.013257 0
-0.155275 -0.022307 0
-0.153221 -0.031261 0
-0.150001 -0.039949 0
-0.145608 -0.048190 0
-0.140056 -0.055796 0
-0.133385 -0.062575 0
-0.125661 -0.068341 0
-0.116979 -0.072917 0
-0.107468 -0.076147 0
-0.097287 -0.077907 0
-0.086622 -0.078109 0
-0.075687 -0.076712 0
-0.064714 -0.073729 0
-0.053947 -0.069234 0
-0.043632 -0.063360 0
-0.034006 -0.056302 0
-0.025290 -0.048311 0
-0.017675 -0.039691 0
-0.011317 -0.030785 0
-0.006328 -0.021967 0
-0.002775 -0.013629 0
-0.000675 -0.006175 0
0.000000 -0.000000 0
0.000000 0.000000 0
-0.001027 0.013414 0
-0.003791 0.025525 0
-0.008001 0.036256 0
-0.013405 0.045590 0
-0.019777 0.053552 0
-0.026924 0.060193 0
-0.034678 0.065583 0
-0.042894 0.069797 0
-0.051447 0.072913 0
-0.060228 0.075000 0
-0.069139 0.076121 0
-0.078092 0.076326 0
-0.087008 0.075655 0
-0.095811 0.074137 0
-0.104427 0.071791 0
-0.112785 0.068631 0
-0.120815 0.064667 0
-0.128444 0.059909 0
-0.135599 0.054368 0
-0.142207 0.048063 0
-0.148191 0.041022 0
-0.153473 0.033282 0
-0.157976 0.024897 0
-0.161621 0.015936 0
-0.164330 0.006487 0
-0.166028 -0.003346 0
-0.166645 -0.013435 0
-0.166118 -0.023633 0
-0.164391 -0.033774 0
-0.161426 -0.043673 0
-0.157200 -0.053128 0
-0.151710 -0.061929 0
-0.144983 -0.069855 0
-0.137071 -0.076691 0
-0.128064 -0.082227 0
-0.118085 -0.086275 0
-0.107293 -0.088676 0
-0.095884 -0.089312 0
-0.084087 -0.088117 0
-0.072156 -0.085087 0
-0.060363 -0.080283 0
-0.048989 -0.073842 0
-0.038308 -0.065970 0
-0.028581 -0.056942 0
-0.020037 -0.047093 0
-0.012868 -0.036809 0
-0.007217 -0.026511 0
-0.003174 -0.016642 0
-0.000775 -0.007656 0
0.000000 -0.000000 0
0.000000 0.000000 0
-0.001074 0.015355 0
-0.003960 0.029094 0
-0.008354 0.041174 0
-0.013989 0.051611 0
-0.020629 0.060462 0
-0.028071 0.067806 0
-0.036141 0.073740 0
-0.044688 0.078361 0
-0.053583 0.081763 0
-0.062715 0.084033 0
-0.071984 0.085244 0
-0.081304 0.085456 0
-0.090595 0.084713 0
-0.099782 0.083050 0
-0.108796 0.080487 0
-0.117565 0.077040 0
-0.126020 0.072718 0
-0.134093 0.067530 0
-0.141710 0.061486 0
-0.148797 0.054602 0
-0.155278 0.046904 0
-0.161073 0.038429 0
-0.166100 0.029227 0
-0.170275 0.019369 0
-0.173515 0.008940 0
-0.175733 -0.001949 0
-0.176849 -0.013168 0
-0.176785 -0.024561 0
-0.175473 -0.035952 0
-0.172855 -0.047141 0
-0.168891 -0.057906 0
-0.163562 -0.068013 0
-0.156873 -0.077214 0
-0.148864 -0.085259 0
-0.139611 -0.091903 0
-0.129228 -0.096919 0
-0.117873 -0.100108 0
-0.105748 -0.101314 0
-0.093094 -0.100440 0
-0.080187 -0.097453 0
-0.067329 -0.092401 0
-0.054837 -0.085415 0
-0.043030 -0.076709 0
-0.032210 -0.066582 0
-0.022654 -0.055404 0
-0.014593 -0.043606 0
-0.008209 -0.031661 0
-0.003622 -0.020071 0
-0.000888 -0.009349 0
0.000000 -0.000000 0
0.000000 0.000000 0
-0.001114 0.017374 0
-0.004103 0.032805 0
-0.008654 0.046285 0
-0.014485 0.057865 0
-0.021354 0.067634 0
-0.029051 0.075705 0
-0.037393 0.082200 0
-0.046227 0.087239 0
-0.055420 0.090939 0
-0.064858 0.093401 0
-0.074443 0.094710 0
-0.084088 0.094937 0
-0.093715 0.094134 0
-0.103250 0.092337 0
-0.112626 0.089573 0
-0.121776 0.085856 0
-0.130632 0.081195 0
-0.139127 0.075598 0
-0.147190 0.069072 0
-0.154749 0.061631 0
-0.161727 0.053297 0
-0.168044 0.044104 0
-0.173614 0.034100 0
-0.178350 0.023351 0
-0.182159 0.011944 0
-0.184950 -0.000012 0
-0.186629 -0.012383 0
-0.187105 -0.025009 0
-0.186293 -0.037704 0
-0.184119 -0.050255 0
-0.180521 -0.062422 0
-0.175460 -0.073947 0
-0.168920 -0.084552 0
-0.160922 -0.093953 0
-0.151522 -0.101864 0
-0.140823 -0.108013 0
-0.128977 -0.112155 0
-0.116184 -0.114091 0
-0.102698 -0.113679 0
-0.088814 -0.110852 0
-0.074864 -0.105633 0
-0.061206 -0.098141 0
-0.048202 -0.088597 0
-0.036209 -0.077318 0
-0.025552 -0.064710 0
-0.016514 -0.051253 0
-0.009320 -0.037482 0
-0.004126 -0.023964 0
-0.001016 -0.011278 0
0.000000 -0.000000 0
0.000000 0.000000 0
-0.001145 0.019458 0
-0.004219 0.036634 0
-0.008896 0.051556 0
-0.014888 0.064312 0
-0.021946 0.075027 0
-0.029852 0.083845 0
-0.038421 0.090916 0
-0.047493 0.096387 0
-0.056935 0.100394 0
-0.066631 0.103057 0
-0.076483 0.104474 0
-0.086405 0.104727 0
-0.096320 0.103875 0
-0.106159 0.101961 0