# vtk DataFile Version 2.0
generated by CFD-lab course output (written by Tobias Neckel) 
ASCII

DATASET STRUCTURED_GRID
DIMENSIONS  51 51 1 
POINTS 2601 float

0.000000 0.000000 0
0.020000 0.000000 0
0.040000 0.000000 0
0.060000 0.000000 0
0.080000 0.000000 0
0.100000 0.000000 0
0.120000 0.000000 0
0.140000 0.000000 0
0.160000 0.000000 0
0.180000 0.000000 0
0.200000 0.000000 0
0.220000 0.000000 0
0.240000 0.000000 0
0.260000 0.000000 0
0.280000 0.000000 0
0.300000 0.000000 0
0.320000 0.000000 0
0.340000 0.000000 0
0.360000 0.000000 0
0.380000 0.000000 0
0.400000 0.000000 0
0.420000 0.000000 0
0.440000 0.000000 0
0.460000 0.000000 0
0.480000 0.000000 0
0.500000 0.000000 0
0.520000 0.000000 0
0.540000 0.000000 0
0.560000 0.000000 0
0.580000 0.000000 0
0.600000 0.000000 0
0.620000 0.000000 0
0.640000 0.000000 0
0.660000 0.000000 0
0.680000 0.000000 0
0.700000 0.000000 0
0.720000 0.000000 0
0.740000 0.000000 0
0.760000 0.000000 0
0.780000 0.000000 0
0.800000 0.000000 0
0.820000 0.000000 0
0.840000 0.000000 0
0.860000 0.000000 0
0.880000 0.000000 0
0.900000 0.000000 0
0.920000 0.000000 0
0.940000 0.000000 0
0.960000 0.000000 0
0.980000 0.000000 0
1.000000 0.000000 0
0.000000 0.020000 0
0.020000 0.020000 0
0.040000 0.020000 0
0.060000 0.020000 0
0.080000 0.020000 0
0.100000 0.020000 0
0.120000 0.020000 0
0.140000 0.020000 0
0.160000 0.020000 0
0.180000 0.020000 0
0.200000 0.020000 0
0.220000 0.020000 0
0.240000 0.020000 0
0.260000 0.020000 0
0.280000 0.020000 0
0.300000 0.020000 0
0.320000 0.020000 0
0.340000 0.020000 0
0.360000 0.020000 0
0.380000 0.020000 0
0.400000 0.020000 0
0.420000 0.020000 0
0.440000 0.020000 0
0.460000 0.020000 0
0.480000 0.020000 0
0.500000 0.020000 0
0.520000 0.020000 0
0.540000 0.020000 0
0.560000 0.020000 0
0.580000 0.020000 0
0.600000 0.020000 0
0.620000 0.020000 0
0.640000 0.020000 0
0.660000 0.020000 0
0.680000 0.020000 0
0.700000 0.020000 0
0.720000 0.020000 0
0.740000 0.020000 0
0.760000 0.020000 0
0.780000 0.020000 0
0.800000 0.020000 0
0.820000 0.020000 0
0.840000 0.020000 0
0.860000 0.020000 0
0.880000 0.020000 0
0.900000 0.020000 0
0.920000 0.020000 0
0.940000 0.020000 0
0.960000 0.020000 0
0.980000 0.020000 0
1.000000 0.020000 0
0.000000 0.040000 0
0.020000 0.040000 0
0.040000 0.040000 0
0.060000 0.040000 0
0.080000 0.040000 0
0.100000 0.040000 0
0.120000 0.040000 0
0.140000 0.040000 0
0.160000 0.040000 0
0.180000 0.040000 0
0.200000 0.040000 0
0.220000 0.040000 0
0.240000 0.040000 0
0.260000 0.040000 0
0.280000 0.040000 0
0.300000 0.040000 0
0.320000 0.040000 0
0.340000 0.040000 0
0.360000 0.040000 0
0.380000 0.040000 0
0.400000 0.040000 0
0.420000 0.040000 0
0.440000 0.040000 0
0.460000 0.040000 0
0.480000 0.040000 0
0.500000 0.040000 0
0.520000 0.040000 0
0.540000 0.040000 0
0.560000 0.040000 0
0.580000 0.040000 0
0.600000 0.040000 0
0.620000 0.040000 0
0.640000 0.040000 0
0.660000 0.040000 0
0.680000 0.040000 0
0.700000 0.040000 0
0.720000 0.040000 0
0.740000 0.040000 0
0.760000 0.040000 0
0.780000 0.040000 0
0.800000 0.040000 0
0.820000 0.040000 0
0.840000 0.040000 0
0.860000 0.040000 0
0.880000 0.040000 0
0.900000 0.040000 0
0.920000 0.040000 0
0.940000 0.040000 0
0.960000 0.040000 0
0.980000 0.040000 0
1.000000 0.040000 0
0.000000 0.060000 0
0.020000 0.060000 0
0.040000 0.060000 0
0.060000 0.060000 0
0.080000 0.060000 0
0.100000 0.060000 0
0.120000 0.060000 0
0.140000 0.060000 0
0.160000 0.060000 0
0.180000 0.060000 0
0.200000 0.060000 0
0.220000 0.060000 0
0.240000 0.060000 0
0.260000 0.060000 0
0.280000 0.060000 0
0.300000 0.060000 0
0.320000 0.060000 0
0.340000 0.060000 0
0.360000 0.060000 0
0.380000 0.060000 0
0.400000 0.060000 0
0.420000 0.060000 0
0.440000 0.060000 0
0.460000 0.060000 0
0.480000 0.060000 0
0.500000 0.060000 0
0.520000 0.060000 0
0.540000 0.060000 0
0.560000 0.060000 0
0.580000 0.060000 0
0.600000 0.060000 0
0.620000 0.060000 0
0.640000 0.060000 0
0.660000 0.060000 0
0.680000 0.060000 0
0.700000 0.060000 0
0.720000 0.060000 0
0.740000 0.060000 0
0.760000 0.060000 0
0.780000 0.060000 0
0.800000 0.060000 0
0.820000 0.060000 0
0.840000 0.060000 0
0.860000 0.060000 0
0.880000 0.060000 0
0.900000 0.060000 0
0.920000 0.060000 0
0.940000 0.060000 0
0.960000 0.060000 0
0.980000 0.060000 0
1.000000 0.060000 0
0.000000 0.080000 0
0.020000 0.080000 0
0.040000 0.080000 0
0.060000 0.080000 0
0.080000 0.080000 0
0.100000 0.080000 0
0.120000 0.080000 0
0.140000 0.080000 0
0.160000 0.080000 0
0.180000 0.080000 0
0.200000 0.080000 0
0.220000 0.080000 0
0.240000 0.080000 0
0.260000 0.080000 0
0.280000 0.080000 0
0.300000 0.080000 0
0.320000 0.080000 0
0.340000 0.080000 0
0.360000 0.080000 0
0.380000 0.080000 0
0.400000 0.080000 0
0.420000 0.080000 0
0.440000 0.080000 0
0.460000 0.080000 0
0.480000 0.080000 0
0.500000 0.080000 0
0.520000 0.080000 0
0.540000 0.080000 0
0.560000 0.080000 0
0.580000 0.080000 0
0.600000 0.080000 0
0.620000 0.080000 0
0.640000 0.080000 0
0.660000 0.080000 0
0.680000 0.080000 0
0.700000 0.080000 0
0.720000 0.080000 0
0.740000 0.080000 0
0.760000 0.080000 0
0.780000 0.080000 0
0.800000 0.080000 0
0.820000 0.080000 0
0.840000 0.080000 0
0.860000 0.080000 0
0.880000 0.080000 0
0.900000 0.080000 0
0.920000 0.080000 0
0.940000 0.080000 0
0.960000 0.080000 0
0.980000 0.080000 0
1.000000 0.080000 0
0.000000 0.100000 0
0.020000 0.100000 0
0.040000 0.100000 0
0.060000 0.100000 0
0.080000 0.100000 0
0.100000 0.100000 0
0.120000 0.100000 0
0.140000 0.100000 0
0.160000 0.100000 0
0.180000 0.100000 0
0.200000 0.100000 0
0.220000 0.100000 0
0.240000 0.100000 0
0.260000 0.100000 0
0.280000 0.100000 0
0.300000 0.100000 0
0.320000 0.100000 0
0.340000 0.100000 0
0.360000 0.100000 0
0.380000 0.100000 0
0.400000 0.100000 0
0.420000 0.100000 0
0.440000 0.100000 0
0.460000 0.100000 0
0.480000 0.100000 0
0.500000 0.100000 0
0.520000 0.100000 0
0.540000 0.100000 0
0.560000 0.100000 0
0.580000 0.100000 0
0.600000 0.100000 0
0.620000 0.100000 0
0.640000 0.100000 0
0.660000 0.100000 0
0.680000 0.100000 0
0.700000 0.100000 0
0.720000 0.100000 0
0.740000 0.100000 0
0.760000 0.100000 0
0.780000 0.100000 0
0.800000 0.100000 0
0.820000 0.100000 0
0.840000 0.100000 0
0.860000 0.100000 0
0.880000 0.100000 0
0.900000 0.100000 0
0.920000 0.100000 0
0.940000 0.100000 0
0.960000 0.100000 0
0.980000 0.100000 0
1.000000 0.100000 0
0.000000 0.120000 0
0.020000 0.120000 0
0.040000 0.120000 0
0.060000 0.120000 0
0.080000 0.120000 0
0.100000 0.120000 0
0.120000 0.120000 0
0.140000 0.120000 0
0.160000 0.120000 0
0.180000 0.120000 0
0.200000 0.120000 0
0.220000 0.120000 0
0.240000 0.120000 0
0.260000 0.120000 0
0.280000 0.120000 0
0.300000 0.120000 0
0.320000 0.120000 0
0.340000 0.120000 0
0.360000 0.120000 0
0.380000 0.120000 0
0.400000 0.120000 0
0.420000 0.120000 0
0.440000 0.120000 0
0.460000 0.120000 0
0.480000 0.120000 0
0.500000 0.120000 0
0.520000 0.120000 0
0.540000 0.120000 0
0.560000 0.120000 0
0.580000 0.120000 0
0.600000 0.120000 0
0.620000 0.120000 0
0.640000 0.120000 0
0.660000 0.120000 0
0.680000 0.120000 0
0.700000 0.120000 0
0.720000 0.120000 0
0.740000 0.120000 0
0.760000 0.120000 0
0.780000 0.120000 0
0.800000 0.120000 0
0.820000 0.120000 0
0.840000 0.120000 0
0.860000 0.120000 0
0.880000 0.120000 0
0.900000 0.120000 0
0.920000 0.120000 0
0.940000 0.120000 0
0.960000 0.120000 0
0.980000 0.120000 0
1.000000 0.120000 0
0.000000 0.140000 0
0.020000 0.140000 0
0.040000 0.140000 0
0.060000 0.140000 0
0.080000 0.140000 0
0.100000 0.140000 0
0.120000 0.140000 0
0.140000 0.140000 0
0.160000 0.140000 0
0.180000 0.140000 0
0.200000 0.140000 0
0.220000 0.140000 0
0.240000 0.140000 0
0.260000 0.140000 0
0.280000 0.140000 0
0.300000 0.140000 0
0.320000 0.140000 0
0.340000 0.140000 0
0.360000 0.140000 0
0.380000 0.140000 0
0.400000 0.140000 0
0.420000 0.140000 0
0.440000 0.140000 0
0.460000 0.140000 0
0.480000 0.140000 0
0.500000 0.140000 0
0.520000 0.140000 0
0.540000 0.140000 0
0.560000 0.140000 0
0.580000 0.140000 0
0.600000 0.140000 0
0.620000 0.140000 0
0.640000 0.140000 0
0.660000 0.140000 0
0.680000 0.140000 0
0.700000 0.140000 0
0.720000 0.140000 0
0.740000 0.140000 0
0.760000 0.140000 0
0.780000 0.140000 0
0.800000 0.140000 0
0.820000 0.140000 0
0.840000 0.140000 0
0.860000 0.140000 0
0.880000 0.140000 0
0.900000 0.140000 0
0.920000 0.140000 0
0.940000 0.140000 0
0.960000 0.140000 0
0.980000 0.140000 0
1.000000 0.140000 0
0.000000 0.160000 0
0.020000 0.160000 0
0.040000 0.160000 0
0.060000 0.160000 0
0.080000 0.160000 0
0.100000 0.160000 0
0.120000 0.160000 0
0.140000 0.160000 0
0.160000 0.160000 0
0.180000 0.160000 0
0.200000 0.160000 0
0.220000 0.160000 0
0.240000 0.160000 0
0.260000 0.160000 0
0.280000 0.160000 0
0.300000 0.160000 0
0.320000 0.160000 0
0.340000 0.160000 0
0.360000 0.160000 0
0.380000 0.160000 0
0.400000 0.160000 0
0.420000 0.160000 0
0.440000 0.160000 0
0.460000 0.160000 0
0.480000 0.160000 0
0.500000 0.160000 0
0.520000 0.160000 0
0.540000 0.160000 0
0.560000 0.160000 0
0.580000 0.160000 0
0.600000 0.160000 0
0.620000 0.160000 0
0.640000 0.160000 0
0.660000 0.160000 0
0.680000 0.160000 0
0.700000 0.160000 0
0.720000 0.160000 0
0.740000 0.160000 0
0.760000 0.160000 0
0.780000 0.160000 0
0.800000 0.160000 0
0.820000 0.160000 0
0.840000 0.160000 0
0.860000 0.160000 0
0.880000 0.160000 0
0.900000 0.160000 0
0.920000 0.160000 0
0.940000 0.160000 0
0.960000 0.160000 0
0.980000 0.160000 0
1.000000 0.160000 0
0.000000 0.180000 0
0.020000 0.180000 0
0.040000 0.180000 0
0.060000 0.180000 0
0.080000 0.180000 0
0.100000 0.180000 0
0.120000 0.180000 0
0.140000 0.180000 0
0.160000 0.180000 0
0.180000 0.180000 0
0.200000 0.180000 0
0.220000 0.180000 0
0.240000 0.180000 0
0.260000 0.180000 0
0.280000 0.180000 0
0.300000 0.180000 0
0.320000 0.180000 0
0.340000 0.180000 0
0.360000 0.180000 0
0.380000 0.180000 0
0.400000 0.180000 0
0.420000 0.180000 0
0.440000 0.180000 0
0.460000 0.180000 0
0.480000 0.180000 0
0.500000 0.180000 0
0.520000 0.180000 0
0.540000 0.180000 0
0.560000 0.180000 0
0.580000 0.180000 0
0.600000 0.180000 0
0.620000 0.180000 0
[...]
POINT_DATA 2601 

VECTORS velocity float
0.000000 0.000000 0
-0.000001 0.000000 0
-0.000001 0.000000 0
-0.000001 0.000000 0
-0.000000 0.000000 0
0.000000 0.000000 0
0.000000 0.000000 0
0.000000 0.000000 0
0.000000 0.000000 0
-0.000000 0.000000 0
-0.000000 0.000000 0
-0.000000 0.000000 0
-0.000000 0.000000 0
0.000000 0.000000 0
0.000000 0.000000 0
0.000000 0.000000 0
-0.000000 0.000000 0
-0.000000 0.000000 0
-0.000000 0.000000 0
-0.000000 0.000000 0
-0.000000 0.000000 0
-0.000000 0.000000 0
-0.000000 0.000000 0
-0.000000 0.000000 0
-0.000000 0.000000 0
-0.000000 0.000000 0
-0.000000 0.000000 0
-0.000000 0.000000 0
-0.000000 0.000000 0
-0.000000 0.000000 0
-0.000000 0.000000 0
-0.000000 0.000000 0
-0.000000 0.000000 0
-0.000000 0.000000 0
-0.000000 0.000000 0
-0.000000 0.000000 0
-0.000000 0.000000 0
-0.000000 0.000000 0
-0.000000 0.000000 0
-0.000000 0.000000 0
-0.000000 0.000000 0
-0.000000 0.000000 0
0.000000 0.000000 0
0.000000 0.000000 0
0.000000 0.000000 0
0.000000 0.000000 0
0.000000 0.000000 0
0.000000 0.000000 0
0.000000 0.000000 0
0.000000 0.000000 0
0.000000 0.000000 0
0.000000 -0.000001 0
0.000059 -0.000060 0
0.000080 -0.000023 0
-0.000015 0.000055 0
-0.000256 0.000143 0
-0.000644 0.000228 0
-0.001168 0.000301 0
-0.001810 0.000362 0
-0.002549 0.000410 0
-0.003365 0.000447 0
-0.004239 0.000474 0
-0.005152 0.000491 0
-0.006090 0.000500 0
-0.007036 0.000502 0
-0.007978 0.000496 0
-0.008902 0.000484 0
-0.009795 0.000466 0
-0.010645 0.000440 0
-0.011439 0.000409 0
-0.012166 0.000370 0
-0.012812 0.000325 0
-0.013366 0.000273 0
-0.013816 0.000215 0
-0.014150 0.000151 0
-0.014360 0.000082 0
-0.014436 0.000009 0
-0.014373 -0.000068 0
-0.014167 -0.000146 0
-0.013817 -0.000224 0
-0.013326 -0.000300 0
-0.012699 -0.000372 0
-0.011946 -0.000437 0
-0.011081 -0.000495 0
-0.010120 -0.000542 0
-0.009084 -0.000577 0
-0.007996 -0.000598 0
-0.006881 -0.000605 0
-0.005766 -0.000596 0
-0.004679 -0.000572 0
-0.003646 -0.000533 0
-0.002695 -0.000480 0
-0.001847 -0.000415 0
-0.001124 -0.000339 0
-0.000541 -0.000255 0
-0.000109 -0.000167 0
0.000170 -0.000080 0
0.000302 0.000001 0
0.000304 0.000066 0
0.000212 0.000099 0
0.000082 0.000082 0
0.000000 0.000000 0
0.000000 -0.000001 0
0.000023 -0.000081 0
-0.000076 0.000074 0
-0.000386 0.000337 0
-0.000942 0.000630 0
-0.001749 0.000913 0
-0.002788 0.001166 0
-0.004033 0.001381 0
-0.005448 0.001555 0
-0.007002 0.001690 0
-0.008659 0.001787 0
-0.010388 0.001851 0
-0.012160 0.001884 0
-0.013946 0.001888 0
-0.015722 0.001865 0
-0.017460 0.001817 0
-0.019138 0.001743 0
-0.020732 0.001645 0
-0.022217 0.001521 0
-0.023571 0.001373 0
-0.024771 0.001200 0
-0.025794 0.001004 0
-0.026620 0.000784 0
-0.027229 0.000544 0
-0.027604 0.000286 0
-0.027730 0.000013 0
-0.027597 -0.000269 0
-0.027201 -0.000556 0
-0.026539 -0.000842 0
-0.025618 -0.001119 0
-0.024449 -0.001380 0
-0.023051 -0.001618 0
-0.021448 -0.001826 0
-0.019670 -0.001997 0
-0.017755 -0.002124 0
-0.015743 -0.002203 0
-0.013680 -0.002230 0
-0.011614 -0.002202 0
-0.009593 -0.002120 0
-0.007666 -0.001984 0
-0.005879 -0.001799 0
-0.004272 -0.001571 0
-0.002883 -0.001306 0
-0.001737 -0.001015 0
-0.000852 -0.000711 0
-0.000234 -0.000411 0
0.000129 -0.000134 0
0.000266 0.000090 0
0.000230 0.000222 0
0.000102 0.000212 0
0.000000 0.000000 0
0.000000 -0.000001 0
-0.000057 0.000016 0
-0.000349 0.000386 0
-0.000946 0.000922 0
-0.001873 0.001507 0
-0.003128 0.002073 0
-0.004688 0.002584 0
-0.006516 0.003021 0
-0.008571 0.003379 0
-0.010809 0.003658 0
-0.013185 0.003860 0
-0.015656 0.003993 0
-0.018183 0.004059 0
-0.020726 0.004064 0
-0.023249 0.004010 0
-0.025716 0.003901 0
-0.028092 0.003737 0
-0.030344 0.003519 0
-0.032438 0.003248 0
-0.034343 0.002924 0
-0.036025 0.002548 0
-0.037455 0.002123 0
-0.038604 0.001650 0
-0.039445 0.001135 0
-0.039956 0.000583 0
-0.040118 0.000002 0
-0.039918 -0.000597 0
-0.039350 -0.001204 0
-0.038414 -0.001806 0
-0.037118 -0.002389 0
-0.035480 -0.002938 0
-0.033523 -0.003439 0
-0.031282 -0.003876 0
-0.028799 -0.004235 0
-0.026124 -0.004504 0
-0.023311 -0.004673 0
-0.020423 -0.004734 0
-0.017524 -0.004683 0
-0.014679 -0.004520 0
-0.011953 -0.004248 0
-0.009408 -0.003874 0
-0.007099 -0.003411 0
-0.005076 -0.002874 0
-0.003373 -0.002285 0
-0.002016 -0.001670 0
-0.001011 -0.001061 0
-0.000347 -0.000499 0
0.000010 -0.000035 0
0.000121 0.000263 0
0.000076 0.000311 0
0.000000 0.000000 0
0.000000 -0.000000 0
-0.000153 0.000268 0
-0.000674 0.000964 0
-0.001598 0.001861 0
-0.002931 0.002812 0
-0.004657 0.003727 0
-0.006743 0.004553 0
-0.009147 0.005264 0
-0.011818 0.005848 0
-0.014704 0.006303 0
-0.017752 0.006635 0
-0.020912 0.006850 0
-0.024133 0.006954 0
-0.027368 0.006954 0
-0.030570 0.006855 0
-0.033697 0.006660 0
-0.036704 0.006371 0
-0.039548 0.005991 0
-0.042190 0.005520 0
-0.044586 0.004960 0
-0.046700 0.004313 0
-0.048492 0.003582 0
-0.049927 0.002774 0
-0.050975 0.001896 0
-0.051607 0.000959 0
-0.051803 -0.000024 0
-0.051546 -0.001037 0
-0.050830 -0.002060 0
-0.049656 -0.003073 0
-0.048035 -0.004053 0
-0.045987 -0.004975 0
-0.043544 -0.005816 0
-0.040745 -0.006550 0
-0.037643 -0.007155 0
-0.034297 -0.007612 0
-0.030775 -0.007903 0
-0.027150 -0.008017 0
-0.023501 -0.007946 0
-0.019905 -0.007691 0
-0.016443 -0.007255 0
-0.013189 -0.006653 0
-0.010211 -0.005903 0
-0.007568 -0.005032 0
-0.005305 -0.004075 0
-0.003454 -0.003073 0
-0.002026 -0.002079 0
-0.001011 -0.001156 0
-0.000375 -0.000379 0
-0.000060 0.000157 0
0.000025 0.000333 0
0.000000 0.000000 0
0.000000 0.000000 0
-0.000253 0.000691 0
-0.001017 0.001832 0
-0.002287 0.003178 0
-0.004043 0.004565 0
-0.006253 0.005885 0
-0.008871 0.007074 0
-0.011844 0.008096 0
-0.015114 0.008936 0
-0.018622 0.009592 0
-0.022308 0.010068 0
-0.026114 0.010373 0
-0.029983 0.010515 0
-0.033860 0.010501 0
-0.037691 0.010339 0
-0.041425 0.010034 0
-0.045010 0.009588 0
-0.048398 0.009005 0
-0.051540 0.008286 0
-0.054388 0.007434 0
-0.056897 0.006454 0
-0.059022 0.005350 0
-0.060725 0.004133 0
-0.061967 0.002815 0
-0.062719 0.001411 0
-0.062956 -0.000059 0
-0.062660 -0.001569 0
-0.061825 -0.003094 0
-0.060450 -0.004601 0
-0.058550 -0.006058 0
-0.056146 -0.007430 0
-0.053276 -0.008681 0
-0.049984 -0.009776 0
-0.046330 -0.010683 0
-0.042381 -0.011372 0
-0.038214 -0.011820 0
-0.033913 -0.012009 0
-0.029568 -0.011928 0
-0.025269 -0.011578 0
-0.021107 -0.010964 0
-0.017169 -0.010107 0
-0.013534 -0.009032 0
-0.010273 -0.007780 0
-0.007439 -0.006399 0
-0.005072 -0.004949 0
-0.003189 -0.003504 0
-0.001786 -0.002149 0
-0.000834 -0.000986 0
-0.000278 -0.000137 0
-0.000036 0.000251 0
0.000000 0.000000 0
0.000000 0.000000 0
-0.000351 0.001286 0
-0.001359 0.002998 0
-0.002981 0.004887 0
-0.005167 0.006777 0
-0.007865 0.008554 0
-0.011013 0.010144 0
-0.014547 0.011507 0
-0.018403 0.012626 0
-0.022513 0.013498 0
-0.026810 0.014127 0
-0.031230 0.014524 0
-0.035711 0.014699 0
-0.040191 0.014662 0
-0.044611 0.014419 0
-0.048912 0.013979 0
-0.053039 0.013345 0
-0.056934 0.012521 0
-0.060545 0.011510 0
-0.063817 0.010317 0
-0.066700 0.008947 0
-0.069145 0.007410 0
-0.071107 0.005719 0
-0.072545 0.003890 0
-0.073425 0.001947 0
-0.073721 -0.000083 0
-0.073411 -0.002168 0
-0.072489 -0.004270 0
-0.070953 -0.006348 0
-0.068818 -0.008357 0
-0.066109 -0.010249 0
-0.062864 -0.011978 0
-0.059132 -0.013496 0
-0.054978 -0.014759 0
-0.050476 -0.015728 0
-0.045711 -0.016371 0
-0.040775 -0.016663 0
-0.035767 -0.016591 0
-0.030789 -0.016152 0
-0.025944 -0.015355 0
-0.021329 -0.014225 0
-0.017036 -0.012799 0
-0.013145 -0.011127 0
-0.009721 -0.009276 0
-0.006814 -0.007323 0
-0.004448 -0.005365 0
-0.002628 -0.003511 0
-0.001333 -0.001887 0
-0.000514 -0.000641 0
-0.000101 0.000055 0
0.000000 0.000000 0
0.000000 0.000000 0
-0.000445 0.002050 0
-0.001694 0.004461 0
-0.003663 0.006986 0
-0.006276 0.009449 0
-0.009457 0.011731 0
-0.013130 0.013757 0
-0.017217 0.015487 0
-0.021644 0.016901 0
-0.026337 0.017999 0
-0.031223 0.018786 0
-0.036232 0.019274 0
-0.041296 0.019475 0
-0.046349 0.019401 0
-0.051327 0.019061 0
-0.056167 0.018462 0
-0.060807 0.017611 0
-0.065186 0.016512 0
-0.069246 0.015169 0
-0.072928 0.013589 0
-0.076176 0.011781 0
-0.078937 0.009757 0
-0.081163 0.007533 0
-0.082809 0.005133 0
-0.083836 0.002586 0
-0.084216 -0.000072 0
-0.083925 -0.002801 0
-0.082953 -0.005552 0
-0.081299 -0.008271 0
-0.078975 -0.010903 0
-0.076008 -0.013385 0
-0.072435 -0.015658 0
-0.068310 -0.017661 0
-0.063699 -0.019339 0
-0.058682 -0.020640 0
-0.053350 -0.021522 0
-0.047803 -0.021953 0
-0.042150 -0.021914 0
-0.036502 -0.021401 0
-0.030974 -0.020425 0
-0.025674 -0.019014 0
-0.020708 -0.017216 0
-0.016166 -0.015094 0
-0.012128 -0.012729 0
-0.008653 -0.010222 0
-0.005777 -0.007689 0
-0.003514 -0.005265 0
-0.001853 -0.003101 0
-0.000758 -0.001369 0
-0.000166 -0.000263 0
0.000000 0.000000 0
0.000000 0.000000 0
-0.000536 0.002979 0
-0.002016 0.006214 0
-0.004324 0.009469 0
-0.007354 0.012572 0
-0.011010 0.015407 0
-0.015195 0.017904 0
-0.019822 0.020022 0
-0.024806 0.021746 0
-0.030063 0.023076 0
-0.035518 0.024022 0
-0.041093 0.024597 0
-0.046717 0.024817 0
-0.052320 0.024693 0
-0.057833 0.024237 0
-0.063190 0.023459 0
-0.068325 0.022365 0
-0.073173 0.020960 0
-0.077671 0.019251 0
-0.081757 0.017246 0
-0.085372 0.014956 0
-0.088457 0.012397 0
-0.090961 0.009590 0
-0.092835 0.006564 0
-0.094038 0.003355 0
-0.094536 0.000006 0
-0.094302 -0.003431 0
-0.093324 -0.006897 0
-0.091597 -0.010326 0
-0.089133 -0.013648 0
-0.085954 -0.016790 0
-0.082099 -0.019676 0
-0.077622 -0.022231 0
-0.072592 -0.024386 0
-0.067091 -0.026077 0
-0.061215 -0.027250 0
-0.055073 -0.027863 0
-0.048779 -0.027892 0
-0.042459 -0.027328 0
-0.036235 -0.026183 0
-0.030232 -0.024491 0
-0.024566 -0.022307 0
-0.019345 -0.019707 0
-0.014660 -0.016790 0
-0.010583 -0.013675 0
-0.007167 -0.010504 0
-0.004436 -0.007434 0
-0.002390 -0.004643 0
-0.001005 -0.002328 0
-0.000231 -0.000703 0
0.000000 0.000000 0
0.000000 0.000000 0
-0.000622 0.004066 0
-0.002323 0.008248 0
-0.004957 0.012325 0
-0.008392 0.016135 0
-0.012507 0.019572 0
-0.017190 0.022570 0
-0.022341 0.025097 0
-0.027863 0.027142 0
-0.033667 0.028711 0
-0.039669 0.029815 0
-0.045790 0.030473 0
-0.051954 0.030702 0
-0.058087 0.030517 0
-0.064118 0.029931 0
-0.069976 0.028954 0
-0.075593 0.027594 0
-0.080902 0.025858 0
-0.085836 0.023753 0
-0.090329 0.021290 0
-0.094319 0.018481 0
-0.097745 0.015346 0
-0.100549 0.011911 0
-0.102681 0.008210 0
-0.104094 0.004287 0
-0.104750 0.000192 0
-0.104619 -0.004013 0
-0.103683 -0.008257 0
-0.101935 -0.012463 0
-0.099380 -0.016546 0
-0.096040 -0.020418 0
-0.091950 -0.023989 0
-0.087163 -0.027168 0
-0.081748 -0.029870 0
-0.075790 -0.032016 0
-0.069388 -0.033540 0
-0.062657 -0.034389 0
-0.055722 -0.034528 0
-0.048716 -0.033946 0
-0.041777 -0.032652 0
-0.035041 -0.030683 0
-0.028642 -0.028103 0
-0.022703 -0.025000 0
-0.017331 -0.021491 0
-0.012617 -0.017715 0
-0.008625 -0.013837 0
-0.005397 -0.010041 0
-0.002946 -0.006531 0
-0.001259 -0.003528 0
-0.000296 -0.001268 0
0.000000 0.000000 0
0.000000 -0.000000 0
-0.000703 0.005302 0
-0.002615 0.010550 0
-0.005560 0.015538 0
-0.009382 0.020121 0
-0.013938 0.024206 0
-0.019100 0.027738 0
-0.024754 0.030694 0
-0.030794 0.033072 0
-0.037125 0.034883 0
-0.043655 0.036146 0
-0.050302 0.036882 0
-0.056986 0.037113 0
-0.063632 0.036856 0
-0.070165 0.036126 0
-0.076513 0.034935 0
-0.082605 0.033291 0
-0.088372 0.031203 0
-0.093743 0.028678 0
-0.098652 0.025729 0
-0.103032 0.022371 0
-0.106819 0.018627 0
-0.109953 0.014526 0
-0.112377 0.010109 0
-0.114042 0.005423 0
-0.114903 0.000531 0
-0.114927 -0.004497 0
-0.114087 -0.009581 0
-0.112373 -0.014629 0
-0.109784 -0.019544 0
-0.106335 -0.024220 0
-0.102060 -0.028553 0
-0.097007 -0.032433 0
-0.091243 -0.035760 0
-0.084854 -0.038437 0
-0.077944 -0.040382 0
-0.070630 -0.041529 0
-0.063047 -0.041833 0
-0.055339 -0.041274 0
-0.047656 -0.039859 0
-0.040153 -0.037626 0
-0.032979 -0.034645 0
-0.026277 -0.031017 0
-0.020172 -0.026876 0
-0.014775 -0.022382 0
-0.010168 -0.017723 0
-0.006409 -0.013113 0
-0.003527 -0.008782 0
-0.001521 -0.004978 0
-0.000363 -0.001962 0
0.000000 0.000000 0
0.000000 -0.000000 0
-0.000779 0.006680 0
-0.002890 0.013106 0
-0.006130 0.019092 0
-0.010318 0.024512 0
-0.015293 0.029290 0
-0.020912 0.033386 0
-0.027047 0.036791 0
-0.033582 0.039513 0
-0.040416 0.041571 0
-0.047452 0.042993 0
-0.054605 0.043805 0
-0.061791 0.044032 0
-0.068932 0.043695 0
-0.075953 0.042812 0
-0.082781 0.041394 0
-0.089342 0.039453 0
-0.095566 0.036996 0
-0.101381 0.034034 0
-0.106718 0.030579 0
-0.111507 0.026648 0
-0.115682 0.022267 0
-0.119178 0.017469 0
-0.121935 0.012299 0
-0.123897 0.006812 0
-0.125015 0.001076 0
-0.125249 -0.004829 0
-0.124566 -0.010811 0
-0.122946 -0.016767 0
-0.120384 -0.022584 0
-0.116887 -0.028142 0
-0.112480 -0.033318 0
-0.107209 -0.037985 0
-0.101137 -0.042023 0
-0.094348 -0.045316 0
-0.086946 -0.047764 0
-0.079056 -0.049285 0
-0.070819 -0.049819 0
-0.062390 -0.049336 0
-0.053934 -0.047837 0
-0.045624 -0.045360 0
-0.037628 -0.041979 0
-0.030110 -0.037807 0
-0.023219 -0.032993 0
-0.017086 -0.027720 0
-0.011817 -0.022203 0
-0.007487 -0.016682 0
-0.004143 -0.011419 0
-0.001797 -0.006692 0
-0.000432 -0.002789 0
0.000000 0.000000 0
0.000000 -0.000000 0
-0.000850 0.008191 0
-0.003146 0.015901 0
-0.006662 0.022967 0
-0.011195 0.029285 0
-0.016565 0.034800 0
-0.022614 0.039491 0
-0.029203 0.043364 0
-0.036208 0.046441 0
-0.043520 0.048753 0
-0.051038 0.050335 0
-0.058673 0.051221 0
-0.066341 0.051440 0
-0.073960 0.051019 0
-0.081456 0.049975 0
-0.088753 0.048324 0
-0.095779 0.046076 0
-0.102460 0.043242 0
-0.108726 0.039830 0
-0.114503 0.035855 0
-0.119722 0.031335 0
-0.124312 0.026298 0
-0.128205 0.020779 0
-0.131337 0.014828 0
-0.133646 0.008504 0
-0.135077 0.001883 0
-0.135581 -0.004947 0
-0.135119 -0.011883 0
-0.133661 -0.018811 0
-0.131192 -0.025603 0
-0.127711 -0.032124 0
-0.123236 -0.038230 0
-0.117802 -0.043777 0
-0.111468 -0.048621 0
-0.104315 -0.052627 0
-0.096448 -0.055673 0
-0.087992 -0.057656 0
-0.079097 -0.058499 0
-0.069930 -0.058158 0
-0.060671 -0.056625 0
-0.051511 -0.053933 0
-0.042641 -0.050159 0
-0.034251 -0.045426 0
-0.026514 -0.039899 0
-0.019587 -0.033784 0
-0.013600 -0.027322 0
-0.008652 -0.020787 0
-0.004807 -0.014472 0
-0.002094 -0.008689 0
-0.000506 -0.003759 0
0.000000 0.000000 0
0.000000 0.000000 0
-0.000915 0.009827 0
-0.003384 0.018919 0
-0.007156 0.027141 0
-0.012008 0.034415 0
-0.017745 0.040709 0
-0.024196 0.046024 0
-0.031209 0.050385 0
-0.038655 0.053829 0
-0.046416 0.056402 0
-0.054389 0.058147 0
-0.062482 0.059107 0
-0.070607 0.059319 0
-0.078686 0.058810 0
-0.086640 0.057604 0
-0.094395 0.055717 0
-0.101878 0.053160 0
-0.109017 0.049943 0
-0.115738 0.046077 0
-0.121969 0.041575 0
-0.127636 0.036457 0
-0.132669 0.030750 0
-0.136995 0.024495 0
-0.140545 0.017740 0
-0.143251 0.010553 0
-0.145052 0.003011 0
-0.145890 -0.004787 0
-0.145716 -0.012731 0
-0.144492 -0.020693 0
-0.142189 -0.028534 0
-0.138797 -0.036099 0
-0.134322 -0.043227 0
-0.128789 -0.049753 0
-0.122250 -0.055509 0
-0.114780 -0.060336 0
-0.106479 -0.064087 0
-0.097478 -0.066635 0
-0.087929 -0.067882 0
-0.078011 -0.067762 0
-0.067921 -0.066257 0
-0.057870 -0.063390 0
-0.048075 -0.059240 0
-0.038750 -0.053935 0
-0.030101 -0.047657 0
-0.022313 -0.040634 0
-0.015546 -0.033138 0
-0.009923 -0.025475 0
-0.005532 -0.017977 0
-0.002418 -0.010994 0
-0.000586 -0.004883 0
0.000000 0.000000 0
0.000000 0.000000 0
-0.000975 0.011575 0
-0.003600 0.022141 0
-0.007606 0.031591 0
-0.012751 0.039874 0
-0.018825 0.046987 0
-0.025644 0.052955 0
-0.033050 0.057823 0
-0.040902 0.061647 0
-0.049081 0.064488 0
-0.057479 0.066401 0
-0.066000 0.067439 0
-0.074558 0.067644 0
-0.083072 0.067051 0
-0.091466 0.065685 0
-0.099664 0.063563 0
-0.107595 0.060698 0
-0.115186 0.057101 0
-0.122365 0.052782 0
-0.129058 0.047753 0
-0.135192 0.042035 0
-0.140691 0.035656 0
-0.145482 0.028655 0
-0.149491 0.021084 0
-0.152644 0.013011 0
-0.154871 0.004522 0
-0.156108 -0.004282 0
-0.156293 -0.013282 0
-0.155377 -0.022338 0
-0.153320 -0.031298 0
-0.150096 -0.039992 0
-0.145699 -0.048238 0
-0.140143 -0.055848 0
-0.133467 -0.062630 0
-0.125737 -0.068398 0
-0.117050 -0.072975 0
-0.107533 -0.076207 0
-0.097345 -0.077966 0
-0.086673 -0.078166 0
-0.075732 -0.076766 0
-0.064752 -0.073779 0
-0.053978 -0.069279 0
-0.043657 -0.063400 0
-0.034025 -0.056336 0
-0.025304 -0.048339 0
-0.017685 -0.039713 0
-0.011323 -0.030801 0
-0.006331 -0.021977 0
-0.002776 -0.013635 0
-0.000675 -0.006177 0
0.000000 -0.000000 0
0.000000 0.000000 0
-0.001029 0.013427 0
-0.003794 0.025549 0
-0.008009 0.036291 0
-0.013417 0.045634 0
-0.019795 0.053602 0
-0.026948 0.060249 0
-0.034709 0.065643 0
-0.042933 0.069861 0
-0.051493 0.072978 0
-0.060281 0.075066 0
-0.069198 0.076187 0
-0.078159 0.076391 0
-0.087081 0.075717 0
-0.095889 0.074196 0
-0.104510 0.071846 0
-0.112874 0.068682 0
-0.120908 0.064713 0
-0.128541 0.059949 0
-0.135700 0.054401 0
-0.142310 0.048090 0
-0.148296 0.041041 0
-0.153580 0.033294 0
-0.158084 0.024902 0
-0.161729 0.015933 0
-0.164438 0.006475 0
-0.166135 -0.003365 0
-0.166751 -0.013461 0
-0.166221 -0.023667 0
-0.164492 -0.033814 0
-0.161524 -0.043719 0
-0.157293 -0.053180 0
-0.151800 -0.061985 0
-0.145067 -0.069915 0
-0.137151 -0.076754 0
-0.128137 -0.082292 0
-0.118152 -0.086340 0
-0.107353 -0.088741 0
-0.095938 -0.089375 0
-0.084134 -0.088178 0
-0.072197 -0.085143 0
-0.060397 -0.080335 0
-0.049016 -0.073888 0
-0.038330 -0.066009 0
-0.028597 -0.056974 0
-0.020048 -0.047119 0
-0.012875 -0.036828 0
-0.007221 -0.026524 0
-0.003176 -0.016650 0
-0.000776 -0.007659 0
0.000000 -0.000000 0
0.000000 0.000000 0
-0.001075 0.015370 0
-0.003964 0.029122 0
-0.008362 0.041213 0
-0.014002 0.051660 0
-0.020647 0.060519 0
-0.028096 0.067869 0
-0.036172 0.073807 0
-0.044727 0.078431 0
-0.053629 0.081836 0
-0.062767 0.084106 0
-0.072043 0.085317 0
-0.081370 0.085526 0
-0.090667 0.084781 0
-0.099860 0.083114 0
-0.108878 0.080548 0
-0.117652 0.077096 0
-0.126113 0.072768 0
-0.134189 0.067574 0
-0.141809 0.061523 0
-0.148899 0.054632 0
-0.155382 0.046926 0
-0.161178 0.038442 0
-0.166206 0.029233 0
-0.170382 0.019365 0
-0.173621 0.008928 0
-0.175839 -0.001969 0
-0.176954 -0.013196 0
-0.176888 -0.024597 0
-0.175574 -0.035995 0
-0.172953 -0.047190 0
-0.168985 -0.057962 0
-0.163652 -0.068074 0
-0.156959 -0.077280 0
-0.148945 -0.085328 0
-0.139686 -0.091974 0
-0.129297 -0.096991 0
-0.117936 -0.100179 0
-0.105804 -0.101385 0
-0.093144 -0.100507 0
-0.080229 -0.097517 0
-0.067365 -0.092460 0
-0.054866 -0.085467 0
-0.043053 -0.076755 0
-0.032227 -0.066620 0
-0.022666 -0.055435 0
-0.014601 -0.043628 0
-0.008214 -0.031676 0
-0.003624 -0.020080 0
-0.000889 -0.009353 0
0.000000 -0.000000 0
0.000000 0.000000 0
-0.001115 0.017391 0
-0.004107 0.032836 0
-0.008661 0.046328 0
-0.014498 0.057919 0
-0.021373 0.067697 0
-0.029075 0.075775 0
-0.037424 0.082274 0
-0.046265 0.087317 0
-0.055465 0.091018 0
-0.064910 0.093480 0
-0.074501 0.094789 0
-0.084153 0.095014 0
-0.093785 0.094208 0
-0.103326 0.092408 0
-0.112707 0.089639 0
-0.121861 0.085916 0
-0.130721 0.081249 0
-0.139220 0.075645 0
-0.147287 0.069112 0
-0.154848 0.061663 0
-0.161829 0.053321 0
-0.168147 0.044119 0
-0.173718 0.034106 0
-0.178454 0.023348 0
-0.182263 0.011932 0
-0.185053 -0.000033 0
-0.186731 -0.012412 0
-0.187205 -0.025047 0
-0.186392 -0.037750 0
-0.184215 -0.050307 0
-0.180614 -0.062481 0
-0.175549 -0.074012 0
-0.169006 -0.084622 0
-0.161003 -0.094027 0
-0.151598 -0.101940 0
-0.140893 -0.108090 0
-0.129041 -0.112233 0
-0.116242 -0.114168 0
-0.102749 -0.113753 0
-0.088858 -0.110922 0
-0.074902 -0.105698 0
-0.061237 -0.098200 0
-0.048227 -0.088648 0
-0.036227 -0.077361 0
-0.025565 -0.064745 0
-0.016523 -0.051280 0
-0.009325 -0.037501 0
-0.004128 -0.023975 0
-0.001017 -0.011283 0
0.000000 -0.000000 0
0.000000 0.000000 0
-0.001146 0.019477 0
-0.004222 0.036668 0
-0.008903 0.051604 0
-0.014900 0.064372 0
-0.021964 0.075096 0
-0.029876 0.083921 0
-0.038451 0.090997 0
-0.047530 0.096471 0
-0.056978 0.100480 0
-0.066681 0.103143 0
-0.076539 0.104560 0
-0.086467 0.104810 0
-0.096388 0.103955 0
-0.106232 0.102037 0
-0.115932 0.099083 0