# vtk DataFile Version 2.0
generated by CFD-lab course output (written by Tobias Neckel) 
ASCII

DATASET STRUCTURED_GRID
DIMENSIONS  51 51 1 
POINTS 2601 float

0.000000 0.000000 0
0.020000 0.000000 0
0.040000 0.000000 0
0.060000 0.000000 0
0.080000 0.000000 0
0.100000 0.000000 0
0.120000 0.000000 0
0.140000 0.000000 0
0.160000 0.000000 0
0.180000 0.000000 0
0.200000 0.000000 0
0.220000 0.000000 0
0.240000 0.000000 0
0.260000 0.000000 0
0.280000 0.000000 0
0.300000 0.000000 0
0.320000 0.000000 0
0.340000 0.000000 0
0.360000 0.000000 0
0.380000 0.000000 0
0.400000 0.000000 0
0.420000 0.000000 0
0.440000 0.000000 0
0.460000 0.000000 0
0.480000 0.000000 0
0.500000 0.000000 0
0.520000 0.000000 0
0.540000 0.000000 0
0.560000 0.000000 0
0.580000 0.000000 0
0.600000 0.000000 0
0.620000 0.000000 0
0.640000 0.000000 0
0.660000 0.000000 0
0.680000 0.000000 0
0.700000 0.000000 0
0.720000 0.000000 0
0.740000 0.000000 0
0.760000 0.000000 0
0.780000 0.000000 0
0.800000 0.000000 0
0.820000 0.000000 0
0.840000 0.000000 0
0.860000 0.000000 0
0.880000 0.000000 0
0.900000 0.000000 0
0.920000 0.000000 0
0.940000 0.000000 0
0.960000 0.000000 0
0.980000 0.000000 0
1.000000 0.000000 0
0.000000 0.020000 0
0.020000 0.020000 0
0.040000 0.020000 0
0.060000 0.020000 0
0.080000 0.020000 0
0.100000 0.020000 0
0.120000 0.020000 0
0.140000 0.020000 0
0.160000 0.020000 0
0.180000 0.020000 0
0.200000 0.020000 0
0.220000 0.020000 0
0.240000 0.020000 0
0.260000 0.020000 0
0.280000 0.020000 0
0.300000 0.020000 0
0.320000 0.020000 0
0.340000 0.020000 0
0.360000 0.020000 0
0.380000 0.020000 0
0.400000 0.020000 0
0.420000 0.020000 0
0.440000 0.020000 0
0.460000 0.020000 0
0.480000 0.020000 0
0.500000 0.020000 0
0.520000 0.020000 0
0.540000 0.020000 0
0.560000 0.020000 0
0.580000 0.020000 0
0.600000 0.020000 0
0.620000 0.020000 0
0.640000 0.020000 0
0.660000 0.020000 0
0.680000 0.020000 0
0.700000 0.020000 0
0.720000 0.020000 0
0.740000 0.020000 0
0.760000 0.020000 0
0.780000 0.020000 0
0.800000 0.020000 0
0.820000 0.020000 0
0.840000 0.020000 0
0.860000 0.020000 0
0.880000 0.020000 0
0.900000 0.020000 0
0.920000 0.020000 0
0.940000 0.020000 0
0.960000 0.020000 0
0.980000 0.020000 0
1.000000 0.020000 0
0.000000 0.040000 0
0.020000 0.040000 0
0.040000 0.040000 0
0.060000 0.040000 0
0.080000 0.040000 0
0.100000 0.040000 0
0.120000 0.040000 0
0.140000 0.040000 0
0.160000 0.040000 0
0.180000 0.040000 0
0.200000 0.040000 0
0.220000 0.040000 0
0.240000 0.040000 0
0.260000 0.040000 0
0.280000 0.040000 0
0.300000 0.040000 0
0.320000 0.040000 0
0.340000 0.040000 0
0.360000 0.040000 0
0.380000 0.040000 0
0.400000 0.040000 0
0.420000 0.040000 0
0.440000 0.040000 0
0.460000 0.040000 0
0.480000 0.040000 0
0.500000 0.040000 0
0.520000 0.040000 0
0.540000 0.040000 0
0.560000 0.040000 0
0.580000 0.040000 0
0.600000 0.040000 0
0.620000 0.040000 0
0.640000 0.040000 0
0.660000 0.040000 0
0.680000 0.040000 0
0.700000 0.040000 0
0.720000 0.040000 0
0.740000 0.040000 0
0.760000 0.040000 0
0.780000 0.040000 0
0.800000 0.040000 0
0.820000 0.040000 0
0.840000 0.040000 0
0.860000 0.040000 0
0.880000 0.040000 0
0.900000 0.040000 0
0.920000 0.040000 0
0.940000 0.040000 0
0.960000 0.040000 0
0.980000 0.040000 0
1.000000 0.040000 0
0.000000 0.060000 0
0.020000 0.060000 0
0.040000 0.060000 0
0.060000 0.060000 0
0.080000 0.060000 0
0.100000 0.060000 0
0.120000 0.060000 0
0.140000 0.060000 0
0.160000 0.060000 0
0.180000 0.060000 0
0.200000 0.060000 0
0.220000 0.060000 0
0.240000 0.060000 0
0.260000 0.060000 0
0.280000 0.060000 0
0.300000 0.060000 0
0.320000 0.060000 0
0.340000 0.060000 0
0.360000 0.060000 0
0.380000 0.060000 0
0.400000 0.060000 0
0.420000 0.060000 0
0.440000 0.060000 0
0.460000 0.060000 0
0.480000 0.060000 0
0.500000 0.060000 0
0.520000 0.060000 0
0.540000 0.060000 0
0.560000 0.060000 0
0.580000 0.060000 0
0.600000 0.060000 0
0.620000 0.060000 0
0.640000 0.060000 0
0.660000 0.060000 0
0.680000 0.060000 0
0.700000 0.060000 0
0.720000 0.060000 0
0.740000 0.060000 0
0.760000 0.060000 0
0.780000 0.060000 0
0.800000 0.060000 0
0.820000 0.060000 0
0.840000 0.060000 0
0.860000 0.060000 0
0.880000 0.060000 0
0.900000 0.060000 0
0.920000 0.060000 0
0.940000 0.060000 0
0.960000 0.060000 0
0.980000 0.060000 0
1.000000 0.060000 0
0.000000 0.080000 0
0.020000 0.080000 0
0.040000 0.080000 0
0.060000 0.080000 0
0.080000 0.080000 0
0.100000 0.080000 0
0.120000 0.080000 0
0.140000 0.080000 0
0.160000 0.080000 0
0.180000 0.080000 0
0.200000 0.080000 0
0.220000 0.080000 0
0.240000 0.080000 0
0.260000 0.080000 0
0.280000 0.080000 0
0.300000 0.080000 0
0.320000 0.080000 0
0.340000 0.080000 0
0.360000 0.080000 0
0.380000 0.080000 0
0.400000 0.080000 0
0.420000 0.080000 0
0.440000 0.080000 0
0.460000 0.080000 0
0.480000 0.080000 0
0.500000 0.080000 0
0.520000 0.080000 0
0.540000 0.080000 0
0.560000 0.080000 0
0.580000 0.080000 0
0.600000 0.080000 0
0.620000 0.080000 0
0.640000 0.080000 0
0.660000 0.080000 0
0.680000 0.080000 0
0.700000 0.080000 0
0.720000 0.080000 0
0.740000 0.080000 0
0.760000 0.080000 0
0.780000 0.080000 0
0.800000 0.080000 0
0.820000 0.080000 0
0.840000 0.080000 0
0.860000 0.080000 0
0.880000 0.080000 0
0.900000 0.080000 0
0.920000 0.080000 0
0.940000 0.080000 0
0.960000 0.080000 0
0.980000 0.080000 0
1.000000 0.080000 0
0.000000 0.100000 0
0.020000 0.100000 0
0.040000 0.100000 0
0.060000 0.100000 0
0.080000 0.100000 0
0.100000 0.100000 0
0.120000 0.100000 0
0.140000 0.100000 0
0.160000 0.100000 0
0.180000 0.100000 0
0.200000 0.100000 0
0.220000 0.100000 0
0.240000 0.100000 0
0.260000 0.100000 0
0.280000 0.100000 0
0.300000 0.100000 0
0.320000 0.100000 0
0.340000 0.100000 0
0.360000 0.100000 0
0.380000 0.100000 0
0.400000 0.100000 0
0.420000 0.100000 0
0.440000 0.100000 0
0.460000 0.100000 0
0.480000 0.100000 0
0.500000 0.100000 0
0.520000 0.100000 0
0.540000 0.100000 0
0.560000 0.100000 0
0.580000 0.100000 0
0.600000 0.100000 0
0.620000 0.100000 0
0.640000 0.100000 0
0.660000 0.100000 0
0.680000 0.100000 0
0.700000 0.100000 0
0.720000 0.100000 0
0.740000 0.100000 0
0.760000 0.100000 0
0.780000 0.100000 0
0.800000 0.100000 0
0.820000 0.100000 0
0.840000 0.100000 0
0.860000 0.100000 0
0.880000 0.100000 0
0.900000 0.100000 0
0.920000 0.100000 0
0.940000 0.100000 0
0.960000 0.100000 0
0.980000 0.100000 0
1.000000 0.100000 0
0.000000 0.120000 0
0.020000 0.120000 0
0.040000 0.120000 0
0.060000 0.120000 0
0.080000 0.120000 0
0.100000 0.120000 0
0.120000 0.120000 0
0.140000 0.120000 0
0.160000 0.120000 0
0.180000 0.120000 0
0.200000 0.120000 0
0.220000 0.120000 0
0.240000 0.120000 0
0.260000 0.120000 0
0.280000 0.120000 0
0.300000 0.120000 0
0.320000 0.120000 0
0.340000 0.120000 0
0.360000 0.120000 0
0.380000 0.120000 0
0.400000 0.120000 0
0.420000 0.120000 0
0.440000 0.120000 0
0.460000 0.120000 0
0.480000 0.120000 0
0.500000 0.120000 0
0.520000 0.120000 0
0.540000 0.120000 0
0.560000 0.120000 0
0.580000 0.120000 0
0.600000 0.120000 0
0.620000 0.120000 0
0.640000 0.120000 0
0.660000 0.120000 0
0.680000 0.120000 0
0.700000 0.120000 0
0.720000 0.120000 0
0.740000 0.120000 0
0.760000 0.120000 0
0.780000 0.120000 0
0.800000 0.120000 0
0.820000 0.120000 0
0.840000 0.120000 0
0.860000 0.120000 0
0.880000 0.120000 0
0.900000 0.120000 0
0.920000 0.120000 0
0.940000 0.120000 0
0.960000 0.120000 0
0.980000 0.120000 0
1.000000 0.120000 0
0.000000 0.140000 0
0.020000 0.140000 0
0.040000 0.140000 0
0.060000 0.140000 0
0.080000 0.140000 0
0.100000 0.140000 0
0.120000 0.140000 0
0.140000 0.140000 0
0.160000 0.140000 0
0.180000 0.140000 0
0.200000 0.140000 0
0.220000 0.140000 0
0.240000 0.140000 0
0.260000 0.140000 0
0.280000 0.140000 0
0.300000 0.140000 0
0.320000 0.140000 0
0.340000 0.140000 0
0.360000 0.140000 0
0.380000 0.140000 0
0.400000 0.140000 0
0.420000 0.140000 0
0.440000 0.140000 0
0.460000 0.140000 0
0.480000 0.140000 0
0.500000 0.140000 0
0.520000 0.140000 0
0.540000 0.140000 0
0.560000 0.140000 0
0.580000 0.140000 0
0.600000 0.140000 0
0.620000 0.140000 0
0.640000 0.140000 0
0.660000 0.140000 0
0.680000 0.140000 0
0.700000 0.140000 0
0.720000 0.140000 0
0.740000 0.140000 0
0.760000 0.140000 0
0.780000 0.140000 0
0.800000 0.140000 0
0.820000 0.140000 0
0.840000 0.140000 0
0.860000 0.140000 0
0.880000 0.140000 0
0.900000 0.140000 0
0.920000 0.140000 0
0.940000 0.140000 0
0.960000 0.140000 0
0.980000 0.140000 0
1.000000 0.140000 0
0.000000 0.160000 0
0.020000 0.160000 0
0.040000 0.160000 0
0.060000 0.160000 0
0.080000 0.160000 0
0.100000 0.160000 0
0.120000 0.160000 0
0.140000 0.160000 0
0.160000 0.160000 0
0.180000 0.160000 0
0.200000 0.160000 0
0.220000 0.160000 0
0.240000 0.160000 0
0.260000 0.160000 0
0.280000 0.160000 0
0.300000 0.160000 0
0.320000 0.160000 0
0.340000 0.160000 0
0.360000 0.160000 0
0.380000 0.160000 0
0.400000 0.160000 0
0.420000 0.160000 0
0.440000 0.160000 0
0.460000 0.160000 0
0.480000 0.160000 0
0.500000 0.160000 0
0.520000 0.160000 0
0.540000 0.160000 0
0.560000 0.160000 0
0.580000 0.160000 0
0.600000 0.160000 0
0.620000 0.160000 0
0.640000 0.160000 0
0.660000 0.160000 0
0.680000 0.160000 0
0.700000 0.160000 0
0.720000 0.160000 0
0.740000 0.160000 0
0.760000 0.160000 0
0.780000 0.160000 0
0.800000 0.160000 0
0.820000 0.160000 0
0.840000 0.160000 0
0.860000 0.160000 0
0.880000 0.160000 0
0.900000 0.160000 0
0.920000 0.160000 0
0.940000 0.160000 0
0.960000 0.160000 0
0.980000 0.160000 0
1.000000 0.160000 0
0.000000 0.180000 0
0.020000 0.180000 0
0.040000 0.180000 0
0.060000 0.180000 0
0.080000 0.180000 0
0.100000 0.180000 0
0.120000 0.180000 0
0.140000 0.180000 0
0.160000 0.180000 0
0.180000 0.180000 0
0.200000 0.180000 0
0.220000 0.180000 0
0.240000 0.180000 0
0.260000 0.180000 0
0.280000 0.180000 0
0.300000 0.180000 0
0.320000 0.180000 0
0.340000 0.180000 0
0.360000 0.180000 0
0.380000 0.180000 0
0.400000 0.180000 0
0.420000 0.180000 0
0.440000 0.180000 0
0.460000 0.180000 0
0.480000 0.180000 0
0.500000 0.180000 0
0.520000 0.180000 0
0.540000 0.180000 0
0.560000 0.180000 0
0.580000 0.180000 0
0.600000 0.180000 0
0.620000 0.180000 0
[...]
POINT_DATA 2601 

VECTORS velocity float
0.000000 0.000000 0
-0.000001 0.000000 0
-0.000001 0.000000 0
0.000000 0.000000 0
0.000001 0.000000 0
0.000000 0.000000 0
0.000000 0.000000 0
-0.000000 0.000000 0
-0.000000 0.000000 0
-0.000000 0.000000 0
0.000000 0.000000 0
0.000000 0.000000 0
0.000000 0.000000 0
0.000000 0.000000 0
-0.000000 0.000000 0
-0.000000 0.000000 0
-0.000000 0.000000 0
-0.000000 0.000000 0
-0.000000 0.000000 0
-0.000000 0.000000 0
-0.000000 0.000000 0
-0.000000 0.000000 0
-0.000000 0.000000 0
-0.000000 0.000000 0
-0.000000 0.000000 0
-0.000000 0.000000 0
-0.000000 0.000000 0
-0.000000 0.000000 0
-0.000000 0.000000 0
-0.000000 0.000000 0
-0.000000 0.000000 0
-0.000000 0.000000 0
-0.000000 0.000000 0
0.000000 0.000000 0
0.000000 0.000000 0
0.000000 0.000000 0
0.000000 0.000000 0
-0.000000 0.000000 0
-0.000000 0.000000 0
-0.000000 0.000000 0
-0.000000 0.000000 0
-0.000000 0.000000 0
-0.000000 0.000000 0
-0.000000 0.000000 0
0.000000 0.000000 0
0.000000 0.000000 0
0.000000 0.000000 0
0.000000 0.000000 0
0.000000 0.000000 0
0.000000 0.000000 0
0.000000 0.000000 0
0.000000 -0.000001 0
0.000059 -0.000060 0
0.000081 -0.000023 0
-0.000014 0.000055 0
-0.000255 0.000144 0
-0.000644 0.000228 0
-0.001169 0.000301 0
-0.001812 0.000362 0
-0.002553 0.000411 0
-0.003370 0.000448 0
-0.004245 0.000475 0
-0.005160 0.000492 0
-0.006099 0.000501 0
-0.007047 0.000503 0
-0.007991 0.000497 0
-0.008916 0.000485 0
-0.009811 0.000466 0
-0.010662 0.000441 0
-0.011458 0.000409 0
-0.012186 0.000371 0
-0.012833 0.000326 0
-0.013388 0.000274 0
-0.013838 0.000216 0
-0.014173 0.000152 0
-0.014383 0.000082 0
-0.014459 0.000009 0
-0.014396 -0.000068 0
-0.014189 -0.000146 0
-0.013838 -0.000224 0
-0.013345 -0.000300 0
-0.012717 -0.000372 0
-0.011963 -0.000438 0
-0.011096 -0.000495 0
-0.010133 -0.000543 0
-0.009095 -0.000578 0
-0.008005 -0.000599 0
-0.006888 -0.000606 0
-0.005771 -0.000597 0
-0.004683 -0.000573 0
-0.003649 -0.000534 0
-0.002696 -0.000481 0
-0.001847 -0.000415 0
-0.001123 -0.000339 0
-0.000540 -0.000255 0
-0.000107 -0.000167 0
0.000171 -0.000079 0
0.000303 0.000001 0
0.000305 0.000066 0
0.000212 0.000100 0
0.000082 0.000082 0
0.000000 0.000000 0
0.000000 -0.000001 0
0.000024 -0.000081 0
-0.000075 0.000075 0
-0.000385 0.000337 0
-0.000943 0.000630 0
-0.001751 0.000914 0
-0.002792 0.001167 0
-0.004038 0.001383 0
-0.005456 0.001557 0
-0.007012 0.001693 0
-0.008672 0.001791 0
-0.010405 0.001854 0
-0.012180 0.001887 0
-0.013970 0.001891 0
-0.015748 0.001868 0
-0.017490 0.001820 0
-0.019170 0.001746 0
-0.020767 0.001647 0
-0.022255 0.001524 0
-0.023611 0.001375 0
-0.024813 0.001202 0
-0.025838 0.001005 0
-0.026665 0.000785 0
-0.027274 0.000545 0
-0.027649 0.000286 0
-0.027775 0.000013 0
-0.027642 -0.000270 0
-0.027244 -0.000558 0
-0.026580 -0.000844 0
-0.025657 -0.001121 0
-0.024486 -0.001383 0
-0.023085 -0.001621 0
-0.021478 -0.001830 0
-0.019697 -0.002001 0
-0.017778 -0.002128 0
-0.015762 -0.002207 0
-0.013696 -0.002233 0
-0.011626 -0.002206 0
-0.009602 -0.002123 0
-0.007672 -0.001987 0
-0.005882 -0.001802 0
-0.004274 -0.001572 0
-0.002882 -0.001307 0
-0.001736 -0.001016 0
-0.000851 -0.000712 0
-0.000232 -0.000410 0
0.000130 -0.000133 0
0.000267 0.000091 0
0.000230 0.000223 0
0.000102 0.000212 0
0.000000 0.000000 0
0.000000 0.000000 0
-0.000056 0.000016 0
-0.000349 0.000387 0
-0.000947 0.000923 0
-0.001876 0.001509 0
-0.003133 0.002076 0
-0.004695 0.002588 0
-0.006526 0.003026 0
-0.008585 0.003385 0
-0.010826 0.003664 0
-0.013207 0.003867 0
-0.015683 0.004000 0
-0.018214 0.004066 0
-0.020762 0.004071 0
-0.023289 0.004017 0
-0.025760 0.003908 0
-0.028141 0.003743 0
-0.030397 0.003525 0
-0.032495 0.003254 0
-0.034402 0.002929 0
-0.036088 0.002552 0
-0.037520 0.002126 0
-0.038670 0.001652 0
-0.039512 0.001136 0
-0.040023 0.000583 0
-0.040184 0.000001 0
-0.039983 -0.000599 0
-0.039414 -0.001207 0
-0.038475 -0.001811 0
-0.037176 -0.002395 0
-0.035533 -0.002945 0
-0.033572 -0.003446 0
-0.031327 -0.003883 0
-0.028839 -0.004243 0
-0.026159 -0.004512 0
-0.023341 -0.004681 0
-0.020448 -0.004742 0
-0.017544 -0.004691 0
-0.014694 -0.004527 0
-0.011964 -0.004254 0
-0.009415 -0.003879 0
-0.007104 -0.003415 0
-0.005078 -0.002877 0
-0.003373 -0.002287 0
-0.002015 -0.001670 0
-0.001010 -0.001060 0
-0.000346 -0.000498 0
0.000012 -0.000034 0
0.000122 0.000265 0
0.000076 0.000312 0
0.000000 0.000000 0
0.000000 0.000000 0
-0.000153 0.000269 0
-0.000675 0.000965 0
-0.001601 0.001863 0
-0.002936 0.002816 0
-0.004665 0.003733 0
-0.006754 0.004561 0
-0.009162 0.005273 0
-0.011838 0.005858 0
-0.014729 0.006314 0
-0.017784 0.006647 0
-0.020949 0.006862 0
-0.024176 0.006966 0
-0.027417 0.006966 0
-0.030625 0.006867 0
-0.033757 0.006671 0
-0.036769 0.006382 0
-0.039619 0.006001 0
-0.042265 0.005530 0
-0.044665 0.004968 0
-0.046782 0.004319 0
-0.048576 0.003587 0
-0.050014 0.002777 0
-0.051062 0.001898 0
-0.051695 0.000958 0
-0.051890 -0.000026 0
-0.051632 -0.001041 0
-0.050913 -0.002066 0
-0.049736 -0.003081 0
-0.048111 -0.004063 0
-0.046058 -0.004986 0
-0.043609 -0.005828 0
-0.040805 -0.006563 0
-0.037697 -0.007169 0
-0.034345 -0.007626 0
-0.030816 -0.007917 0
-0.027185 -0.008031 0
-0.023529 -0.007959 0
-0.019928 -0.007703 0
-0.016460 -0.007266 0
-0.013201 -0.006662 0
-0.010219 -0.005910 0
-0.007573 -0.005038 0
-0.005308 -0.004078 0
-0.003455 -0.003075 0
-0.002025 -0.002080 0
-0.001010 -0.001155 0
-0.000374 -0.000377 0
-0.000059 0.000158 0
0.000025 0.000334 0
0.000000 0.000000 0
0.000000 0.000001 0
-0.000253 0.000692 0
-0.001019 0.001834 0
-0.002291 0.003183 0
-0.004051 0.004572 0
-0.006264 0.005895 0
-0.008886 0.007086 0
-0.011865 0.008110 0
-0.015141 0.008952 0
-0.018656 0.009609 0
-0.022349 0.010086 0
-0.026162 0.010392 0
-0.030038 0.010534 0
-0.033922 0.010520 0
-0.037760 0.010358 0
-0.041500 0.010052 0
-0.045092 0.009605 0
-0.048486 0.009021 0
-0.051633 0.008300 0
-0.054486 0.007446 0
-0.056998 0.006463 0
-0.059127 0.005358 0
-0.060831 0.004138 0
-0.062075 0.002817 0
-0.062827 0.001410 0
-0.063062 -0.000062 0
-0.062765 -0.001576 0
-0.061926 -0.003103 0
-0.060548 -0.004613 0
-0.058643 -0.006073 0
-0.056234 -0.007447 0
-0.053357 -0.008699 0
-0.050059 -0.009796 0
-0.046397 -0.010703 0
-0.042441 -0.011393 0
-0.038266 -0.011841 0
-0.033958 -0.012029 0
-0.029605 -0.011948 0
-0.025299 -0.011596 0
-0.021131 -0.010981 0
-0.017187 -0.010121 0
-0.013547 -0.009044 0
-0.010281 -0.007789 0
-0.007444 -0.006405 0
-0.005075 -0.004953 0
-0.003190 -0.003505 0
-0.001786 -0.002149 0
-0.000834 -0.000985 0
-0.000278 -0.000135 0
-0.000036 0.000253 0
0.000000 0.000000 0
0.000000 0.000000 0
-0.000352 0.001287 0
-0.001362 0.003002 0
-0.002987 0.004894 0
-0.005177 0.006789 0
-0.007879 0.008569 0
-0.011033 0.010162 0
-0.014575 0.011528 0
-0.018438 0.012649 0
-0.022556 0.013522 0
-0.026861 0.014153 0
-0.031290 0.014551 0
-0.035779 0.014726 0
-0.040267 0.014688 0
-0.044694 0.014445 0
-0.049003 0.014004 0
-0.053137 0.013368 0
-0.057039 0.012542 0
-0.060656 0.011529 0
-0.063933 0.010333 0
-0.066820 0.008960 0
-0.069268 0.007420 0
-0.071232 0.005725 0
-0.072671 0.003893 0
-0.073552 0.001946 0
-0.073846 -0.000088 0
-0.073534 -0.002177 0
-0.072608 -0.004283 0
-0.071068 -0.006365 0
-0.068928 -0.008377 0
-0.066213 -0.010272 0
-0.062960 -0.012003 0
-0.059221 -0.013523 0
-0.055059 -0.014787 0
-0.050548 -0.015757 0
-0.045774 -0.016400 0
-0.040829 -0.016692 0
-0.035813 -0.016618 0
-0.030827 -0.016177 0
-0.025974 -0.015378 0
-0.021353 -0.014245 0
-0.017054 -0.012816 0
-0.013157 -0.011140 0
-0.009730 -0.009285 0
-0.006819 -0.007330 0
-0.004451 -0.005368 0
-0.002629 -0.003511 0
-0.001333 -0.001886 0
-0.000514 -0.000639 0
-0.000101 0.000057 0
0.000000 0.000000 0
0.000000 -0.000000 0
-0.000447 0.002053 0
-0.001697 0.004468 0
-0.003670 0.006998 0
-0.006288 0.009465 0
-0.009475 0.011752 0
-0.013155 0.013782 0
-0.017251 0.015515 0
-0.021687 0.016932 0
-0.026388 0.018032 0
-0.031283 0.018821 0
-0.036302 0.019309 0
-0.041375 0.019511 0
-0.046437 0.019436 0
-0.051424 0.019095 0
-0.056273 0.018495 0
-0.060921 0.017641 0
-0.065307 0.016539 0
-0.069373 0.015194 0
-0.073061 0.013611 0
-0.076313 0.011798 0
-0.079078 0.009769 0
-0.081306 0.007541 0
-0.082953 0.005137 0
-0.083980 0.002585 0
-0.084359 -0.000079 0
-0.084065 -0.002813 0
-0.083089 -0.005569 0
-0.081431 -0.008293 0
-0.079101 -0.010929 0
-0.076126 -0.013415 0
-0.072546 -0.015691 0
-0.068412 -0.017697 0
-0.063793 -0.019376 0
-0.058766 -0.020678 0
-0.053425 -0.021560 0
-0.047869 -0.021990 0
-0.042206 -0.021950 0
-0.036549 -0.021435 0
-0.031012 -0.020455 0
-0.025705 -0.019041 0
-0.020731 -0.017239 0
-0.016184 -0.015112 0
-0.012141 -0.012743 0
-0.008661 -0.010232 0
-0.005781 -0.007695 0
-0.003516 -0.005267 0
-0.001854 -0.003100 0
-0.000758 -0.001367 0
-0.000166 -0.000261 0
0.000000 0.000000 0
0.000000 -0.000000 0
-0.000537 0.002984 0
-0.002020 0.006225 0
-0.004332 0.009486 0
-0.007369 0.012595 0
-0.011031 0.015436 0
-0.015226 0.017937 0
-0.019862 0.020059 0
-0.024855 0.021786 0
-0.030123 0.023119 0
-0.035587 0.024067 0
-0.041173 0.024643 0
-0.046807 0.024862 0
-0.052420 0.024737 0
-0.057943 0.024281 0
-0.063309 0.023500 0
-0.068453 0.022403 0
-0.073309 0.020995 0
-0.077814 0.019282 0
-0.081906 0.017273 0
-0.085525 0.014978 0
-0.088614 0.012413 0
-0.091121 0.009600 0
-0.092996 0.006568 0
-0.094199 0.003352 0
-0.094695 -0.000003 0
-0.094459 -0.003446 0
-0.093476 -0.006918 0
-0.091744 -0.010353 0
-0.089273 -0.013681 0
-0.086087 -0.016828 0
-0.082224 -0.019717 0
-0.077739 -0.022276 0
-0.072699 -0.024433 0
-0.067188 -0.026125 0
-0.061302 -0.027298 0
-0.055149 -0.027911 0
-0.048845 -0.027937 0
-0.042514 -0.027371 0
-0.036281 -0.026223 0
-0.030269 -0.024526 0
-0.024595 -0.022337 0
-0.019367 -0.019731 0
-0.014676 -0.016809 0
-0.010594 -0.013689 0
-0.007174 -0.010512 0
-0.004440 -0.007438 0
-0.002392 -0.004644 0
-0.001006 -0.002327 0
-0.000231 -0.000701 0
0.000000 0.000000 0
0.000000 -0.000000 0
-0.000623 0.004073 0
-0.002328 0.008263 0
-0.004967 0.012347 0
-0.008409 0.016165 0
-0.012532 0.019608 0
-0.017225 0.022612 0
-0.022386 0.025144 0
-0.027919 0.027193 0
-0.033734 0.028764 0
-0.039748 0.029871 0
-0.045880 0.030530 0
-0.052055 0.030758 0
-0.058199 0.030572 0
-0.064240 0.029984 0
-0.070108 0.029004 0
-0.075735 0.027641 0
-0.081052 0.025900 0
-0.085993 0.023791 0
-0.090492 0.021322 0
-0.094487 0.018507 0
-0.097916 0.015365 0
-0.100723 0.011923 0
-0.102856 0.008215 0
-0.104269 0.004283 0
-0.104924 0.000180 0
-0.104790 -0.004032 0
-0.103850 -0.008283 0
-0.102096 -0.012496 0
-0.099535 -0.016586 0
-0.096187 -0.020464 0
-0.092088 -0.024039 0
-0.087292 -0.027222 0
-0.081867 -0.029927 0
-0.075898 -0.032075 0
-0.069486 -0.033599 0
-0.062744 -0.034447 0
-0.055798 -0.034584 0
-0.048781 -0.033999 0
-0.041831 -0.032701 0
-0.035085 -0.030727 0
-0.028677 -0.028141 0
-0.022730 -0.025032 0
-0.017351 -0.021516 0
-0.012631 -0.017734 0
-0.008634 -0.013850 0
-0.005403 -0.010048 0
-0.002949 -0.006534 0
-0.001260 -0.003528 0
-0.000297 -0.001267 0
0.000000 0.000000 0
0.000000 -0.000000 0
-0.000704 0.005312 0
-0.002620 0.010570 0
-0.005572 0.015567 0
-0.009401 0.020159 0
-0.013966 0.024252 0
-0.019139 0.027791 0
-0.024804 0.030752 0
-0.030856 0.033134 0
-0.037198 0.034948 0
-0.043741 0.036213 0
-0.050400 0.036950 0
-0.057097 0.037181 0
-0.063754 0.036922 0
-0.070298 0.036190 0
-0.076656 0.034995 0
-0.082758 0.033347 0
-0.088533 0.031253 0
-0.093912 0.028723 0
-0.098828 0.025767 0
-0.103213 0.022402 0
-0.107004 0.018649 0
-0.110140 0.014540 0
-0.112566 0.010113 0
-0.114231 0.005419 0
-0.115090 0.000518 0
-0.115111 -0.004520 0
-0.114267 -0.009612 0
-0.112547 -0.014668 0
-0.109951 -0.019590 0
-0.106495 -0.024274 0
-0.102211 -0.028612 0
-0.097148 -0.032497 0
-0.091374 -0.035827 0
-0.084974 -0.038506 0
-0.078052 -0.040452 0
-0.070726 -0.041599 0
-0.063132 -0.041901 0
-0.055412 -0.041338 0
-0.047718 -0.039918 0
-0.040204 -0.037680 0
-0.033020 -0.034692 0
-0.026309 -0.031057 0
-0.020196 -0.026908 0
-0.014792 -0.022406 0
-0.010179 -0.017741 0
-0.006416 -0.013124 0
-0.003531 -0.008787 0
-0.001522 -0.004979 0
-0.000363 -0.001961 0
0.000000 0.000000 0
0.000000 0.000000 0
-0.000780 0.006693 0
-0.002895 0.013131 0
-0.006143 0.019128 0
-0.010340 0.024559 0
-0.015325 0.029346 0
-0.020955 0.033450 0
-0.027101 0.036861 0
-0.033649 0.039588 0
-0.040496 0.041649 0
-0.047545 0.043073 0
-0.054710 0.043885 0
-0.061909 0.044111 0
-0.069062 0.043773 0
-0.076095 0.042886 0
-0.082933 0.041464 0
-0.089505 0.039518 0
-0.095738 0.037055 0
-0.101561 0.034086 0
-0.106904 0.030622 0
-0.111699 0.026683 0
-0.115877 0.022293 0
-0.119376 0.017485 0
-0.122134 0.012305 0
-0.124097 0.006807 0
-0.125214 0.001061 0
-0.125444 -0.004855 0
-0.124757 -0.010847 0
-0.123132 -0.016812 0
-0.120563 -0.022638 0
-0.117058 -0.028204 0
-0.112643 -0.033386 0
-0.107361 -0.038059 0
-0.101278 -0.042101 0
-0.094478 -0.045397 0
-0.087065 -0.047847 0
-0.079162 -0.049367 0
-0.070913 -0.049899 0
-0.062471 -0.049412 0
-0.054004 -0.047908 0
-0.045682 -0.045425 0
-0.037675 -0.042036 0
-0.030147 -0.037856 0
-0.023247 -0.033033 0
-0.017107 -0.027751 0
-0.011831 -0.022225 0
-0.007496 -0.016697 0
-0.004148 -0.011427 0
-0.001799 -0.006696 0
-0.000432 -0.002789 0
0.000000 -0.000000 0
0.000000 0.000000 0
-0.000851 0.008207 0
-0.003153 0.015932 0
-0.006676 0.023011 0
-0.011219 0.029342 0
-0.016599 0.034867 0
-0.022660 0.039567 0
-0.029262 0.043447 0
-0.036280 0.046529 0
-0.043605 0.048844 0
-0.051137 0.050428 0
-0.058785 0.051314 0
-0.066465 0.051532 0
-0.074098 0.051108 0
-0.081605 0.050061 0
-0.088913 0.048405 0
-0.095949 0.046151 0
-0.102640 0.043309 0
-0.108913 0.039889 0
-0.114698 0.035905 0
-0.119922 0.031375 0
-0.124516 0.026327 0
-0.128412 0.020797 0
-0.131546 0.014834 0
-0.133855 0.008498 0
-0.135285 0.001866 0
-0.135786 -0.004976 0
-0.135320 -0.011924 0
-0.133857 -0.018863 0
-0.131381 -0.025665 0
-0.127892 -0.032194 0
-0.123408 -0.038308 0
-0.117964 -0.043861 0
-0.111620 -0.048711 0
-0.104455 -0.052720 0
-0.096575 -0.055768 0
-0.088107 -0.057751 0
-0.079200 -0.058592 0
-0.070019 -0.058247 0
-0.060748 -0.056708 0
-0.051575 -0.054009 0
-0.042694 -0.050227 0
-0.034293 -0.045485 0
-0.026546 -0.039948 0
-0.019610 -0.033822 0
-0.013616 -0.027351 0
-0.008662 -0.020806 0
-0.004812 -0.014484 0
-0.002096 -0.008695 0
-0.000506 -0.003760 0
0.000000 -0.000000 0
0.000000 0.000000 0
-0.000917 0.009846 0
-0.003391 0.018956 0
-0.007171 0.027194 0
-0.012033 0.034482 0
-0.017781 0.040788 0
-0.024244 0.046113 0
-0.031271 0.050481 0
-0.038729 0.053931 0
-0.046504 0.056506 0
-0.054492 0.058253 0
-0.062598 0.059214 0
-0.070737 0.059423 0
-0.078828 0.058912 0
-0.086794 0.057702 0
-0.094561 0.055809 0
-0.102054 0.053244 0
-0.109202 0.050019 0
-0.115931 0.046143 0
-0.122169 0.041631 0
-0.127842 0.036501 0
-0.132879 0.030783 0
-0.137208 0.024515 0
-0.140759 0.017747 0
-0.143466 0.010546 0
-0.145266 0.002992 0
-0.146102 -0.004819 0
-0.145924 -0.012776 0
-0.144694 -0.020751 0
-0.142386 -0.028602 0
-0.138986 -0.036177 0
-0.134502 -0.043315 0
-0.128960 -0.049848 0
-0.122410 -0.055610 0
-0.114928 -0.060441 0
-0.106616 -0.064194 0
-0.097601 -0.066743 0
-0.088039 -0.067987 0
-0.078108 -0.067864 0
-0.068005 -0.066352 0
-0.057941 -0.063478 0
-0.048133 -0.059319 0
-0.038797 -0.054004 0
-0.030137 -0.047715 0
-0.022340 -0.040681 0
-0.015564 -0.033174 0
-0.009934 -0.025500 0
-0.005538 -0.017993 0
-0.002421 -0.011002 0
-0.000587 -0.004886 0
0.000000 -0.000000 0
0.000000 0.000000 0
-0.000977 0.011598 0
-0.003608 0.022185 0
-0.007621 0.031653 0
-0.012776 0.039952 0
-0.018862 0.047078 0
-0.025694 0.053057 0
-0.033113 0.057933 0
-0.040980 0.061763 0
-0.049172 0.064606 0
-0.057584 0.066521 0
-0.066120 0.067559 0
-0.074691 0.067762 0
-0.083218 0.067165 0
-0.091623 0.065794 0
-0.099833 0.063665 0
-0.107774 0.060792 0
-0.115375 0.057186 0
-0.122561 0.052856 0
-0.129261 0.047816 0
-0.135401 0.042085 0
-0.140905 0.035692 0
-0.145699 0.028677 0
-0.149709 0.021092 0
-0.152863 0.013005 0
-0.155089 0.004501 0
-0.156324 -0.004318 0
-0.156506 -0.013331 0
-0.155585 -0.022401 0
-0.153522 -0.031373 0
-0.150291 -0.040078 0
-0.145886 -0.048334 0
-0.140321 -0.055953 0
-0.133634 -0.062742 0
-0.125893 -0.068515 0
-0.117193 -0.073095 0
-0.107663 -0.076327 0
-0.097462 -0.078085 0
-0.086777 -0.078281 0
-0.075822 -0.076875 0
-0.064829 -0.073881 0
-0.054042 -0.069371 0
-0.043708 -0.063481 0
-0.034065 -0.056405 0
-0.025334 -0.048396 0
-0.017705 -0.039757 0
-0.011336 -0.030832 0
-0.006339 -0.021997 0
-0.002779 -0.013646 0
-0.000676 -0.006181 0
0.000000 -0.000000 0
0.000000 0.000000 0
-0.001031 0.013454 0
-0.003802 0.025600 0
-0.008025 0.036362 0
-0.013443 0.045723 0
-0.019833 0.053706 0
-0.026999 0.060364 0
-0.034774 0.065767 0
-0.043011 0.069990 0
-0.051586 0.073111 0
-0.060388 0.075201 0
-0.069319 0.076320 0
-0.078293 0.076522 0
-0.087227 0.075844 0
-0.096048 0.074317 0
-0.104680 0.071960 0
-0.113054 0.068786 0
-0.121097 0.064806 0
-0.128738 0.060030 0
-0.135904 0.054470 0
-0.142520 0.048145 0
-0.148510 0.041081 0
-0.153797 0.033319 0
-0.158303 0.024911 0
-0.161949 0.015926 0
-0.164657 0.006453 0
-0.166352 -0.003403 0
-0.166965 -0.013515 0
-0.166431 -0.023735 0
-0.164697 -0.033896 0
-0.161722 -0.043813 0
-0.157484 -0.053285 0
-0.151981 -0.062100 0
-0.145239 -0.070038 0
-0.137311 -0.076882 0
-0.128287 -0.082424 0
-0.118288 -0.086474 0
-0.107477 -0.088873 0
-0.096048 -0.089504 0
-0.084230 -0.088301 0
-0.072279 -0.085258 0
-0.060466 -0.080440 0
-0.049072 -0.073981 0
-0.038373 -0.066090 0
-0.028629 -0.057041 0
-0.020071 -0.047171 0
-0.012890 -0.036867 0
-0.007229 -0.026549 0
-0.003179 -0.016664 0
-0.000776 -0.007665 0
0.000000 -0.000000 0
0.000000 -0.000000 0
-0.001078 0.015400 0
-0.003972 0.029179 0
-0.008378 0.041294 0
-0.014027 0.051760 0
-0.020685 0.060634 0
-0.028147 0.067997 0
-0.036237 0.073945 0
-0.044805 0.078575 0
-0.053721 0.081983 0
-0.062874 0.084255 0
-0.072163 0.085464 0
-0.081503 0.085671 0
-0.090813 0.084921 0
-0.100018 0.083247 0
-0.109047 0.080671 0
-0.117831 0.077209 0
-0.126300 0.072870 0
-0.134384 0.067663 0
-0.142011 0.061598 0
-0.149106 0.054691 0
-0.155593 0.046970 0
-0.161393 0.038470 0
-0.166423 0.029243 0
-0.170599 0.019359 0
-0.173838 0.008905 0
-0.176054 -0.002010 0
-0.177166 -0.013253 0
-0.177097 -0.024670 0
-0.175778 -0.036083 0
-0.173151 -0.047291 0
-0.169177 -0.058075 0
-0.163835 -0.068198 0
-0.157133 -0.077412 0
-0.149109 -0.085467 0
-0.139839 -0.092118 0
-0.129437 -0.097137 0
-0.118064 -0.100325 0
-0.105919 -0.101527 0
-0.093244 -0.100644 0
-0.080316 -0.097646 0
-0.067438 -0.092578 0
-0.054926 -0.085573 0
-0.043099 -0.076847 0
-0.032262 -0.066698 0
-0.022691 -0.055496 0
-0.014617 -0.043675 0
-0.008223 -0.031708 0
-0.003628 -0.020099 0
-0.000890 -0.009360 0
0.000000 -0.000000 0
0.000000 -0.000000 0
-0.001117 0.017425 0
-0.004115 0.032900 0
-0.008677 0.046418 0
-0.014523 0.058030 0
-0.021410 0.067825 0
-0.029125 0.075916 0
-0.037488 0.082425 0
-0.046342 0.087474 0
-0.055555 0.091180 0
-0.065014 0.093643 0
-0.074619 0.094950 0
-0.084283 0.095171 0
-0.093928 0.094359 0
-0.103480 0.092551 0
-0.112872 0.089773 0
-0.122035 0.086039 0
-0.130904 0.081359 0
-0.139410 0.075741 0
-0.147483 0.069192 0
-0.155050 0.061727 0
-0.162034 0.053368 0
-0.168355 0.044149 0
-0.173928 0.034118 0
-0.178665 0.023342 0
-0.182474 0.011908 0
-0.185263 -0.000075 0
-0.186939 -0.012472 0
-0.187410 -0.025123 0
-0.186592 -0.037842 0
-0.184410 -0.050414 0
-0.180803 -0.062602 0
-0.175731 -0.074144 0
-0.169179 -0.084764 0
-0.161167 -0.094176 0
-0.151752 -0.102095 0
-0.141036 -0.108248 0
-0.129171 -0.112392 0
-0.116360 -0.114324 0
-0.102853 -0.113904 0
-0.088949 -0.111065 0
-0.074978 -0.105830 0
-0.061299 -0.098319 0
-0.048276 -0.088753 0
-0.036265 -0.077450 0
-0.025592 -0.064817 0
-0.016540 -0.051334 0
-0.009335 -0.037539 0
-0.004133 -0.023998 0
-0.001018 -0.011293 0
0.000000 -0.000000 0
0.000000 -0.000000 0
-0.001148 0.019515 0
-0.004229 0.036739 0
-0.008918 0.051703 0
-0.014925 0.064494 0
-0.022000 0.075236 0
-0.029924 0.084075 0
-0.038512 0.091161 0
-0.047604 0.096643 0
-0.057066 0.100655 0
-0.066782 0.103318 0
-0.076653 0.104733 0
-0.086593 0.104979 0
-0.096525 0.104118 0
-0.106380 0.102191 0