# vtk DataFile Version 2.0
generated by CFD-lab course output (written by Tobias Neckel) 
ASCII

DATASET STRUCTURED_GRID
DIMENSIONS  51 51 1 
POINTS 2601 float

0.000000 0.000000 0
0.020000 0.000000 0
0.040000 0.000000 0
0.060000 0.000000 0
0.080000 0.000000 0
0.100000 0.000000 0
0.120000 0.000000 0
0.140000 0.000000 0
0.160000 0.000000 0
0.180000 0.000000 0
0.200000 0.000000 0
0.220000 0.000000 0
0.240000 0.000000 0
0.260000 0.000000 0
0.280000 0.000000 0
0.300000 0.000000 0
0.320000 0.000000 0
0.340000 0.000000 0
0.360000 0.000000 0
0.380000 0.000000 0
0.400000 0.000000 0
0.420000 0.000000 0
0.440000 0.000000 0
0.460000 0.000000 0
0.480000 0.000000 0
0.500000 0.000000 0
0.520000 0.000000 0
0.540000 0.000000 0
0.560000 0.000000 0
0.580000 0.000000 0
0.600000 0.000000 0
0.620000 0.000000 0
0.640000 0.000000 0
0.660000 0.000000 0
0.680000 0.000000 0
0.700000 0.000000 0
0.720000 0.000000 0
0.740000 0.000000 0
0.760000 0.000000 0
0.780000 0.000000 0
0.800000 0.000000 0
0.820000 0.000000 0
0.840000 0.000000 0
0.860000 0.000000 0
0.880000 0.000000 0
0.900000 0.000000 0
0.920000 0.000000 0
0.940000 0.000000 0
0.960000 0.000000 0
0.980000 0.000000 0
1.000000 0.000000 0
0.000000 0.020000 0
0.020000 0.020000 0
0.040000 0.020000 0
0.060000 0.020000 0
0.080000 0.020000 0
0.100000 0.020000 0
0.120000 0.020000 0
0.140000 0.020000 0
0.160000 0.020000 0
0.180000 0.020000 0
0.200000 0.020000 0
0.220000 0.020000 0
0.240000 0.020000 0
0.260000 0.020000 0
0.280000 0.020000 0
0.300000 0.020000 0
0.320000 0.020000 0
0.340000 0.020000 0
0.360000 0.020000 0
0.380000 0.020000 0
0.400000 0.020000 0
0.420000 0.020000 0
0.440000 0.020000 0
0.460000 0.020000 0
0.480000 0.020000 0
0.500000 0.020000 0
0.520000 0.020000 0
0.540000 0.020000 0
0.560000 0.020000 0
0.580000 0.020000 0
0.600000 0.020000 0
0.620000 0.020000 0
0.640000 0.020000 0
0.660000 0.020000 0
0.680000 0.020000 0
0.700000 0.020000 0
0.720000 0.020000 0
0.740000 0.020000 0
0.760000 0.020000 0
0.780000 0.020000 0
0.800000 0.020000 0
0.820000 0.020000 0
0.840000 0.020000 0
0.860000 0.020000 0
0.880000 0.020000 0
0.900000 0.020000 0
0.920000 0.020000 0
0.940000 0.020000 0
0.960000 0.020000 0
0.980000 0.020000 0
1.000000 0.020000 0
0.000000 0.040000 0
0.020000 0.040000 0
0.040000 0.040000 0
0.060000 0.040000 0
0.080000 0.040000 0
0.100000 0.040000 0
0.120000 0.040000 0
0.140000 0.040000 0
0.160000 0.040000 0
0.180000 0.040000 0
0.200000 0.040000 0
0.220000 0.040000 0
0.240000 0.040000 0
0.260000 0.040000 0
0.280000 0.040000 0
0.300000 0.040000 0
0.320000 0.040000 0
0.340000 0.040000 0
0.360000 0.040000 0
0.380000 0.040000 0
0.400000 0.040000 0
0.420000 0.040000 0
0.440000 0.040000 0
0.460000 0.040000 0
0.480000 0.040000 0
0.500000 0.040000 0
0.520000 0.040000 0
0.540000 0.040000 0
0.560000 0.040000 0
0.580000 0.040000 0
0.600000 0.040000 0
0.620000 0.040000 0
0.640000 0.040000 0
0.660000 0.040000 0
0.680000 0.040000 0
0.700000 0.040000 0
0.720000 0.040000 0
0.740000 0.040000 0
0.760000 0.040000 0
0.780000 0.040000 0
0.800000 0.040000 0
0.820000 0.040000 0
0.840000 0.040000 0
0.860000 0.040000 0
0.880000 0.040000 0
0.900000 0.040000 0
0.920000 0.040000 0
0.940000 0.040000 0
0.960000 0.040000 0
0.980000 0.040000 0
1.000000 0.040000 0
0.000000 0.060000 0
0.020000 0.060000 0
0.040000 0.060000 0
0.060000 0.060000 0
0.080000 0.060000 0
0.100000 0.060000 0
0.120000 0.060000 0
0.140000 0.060000 0
0.160000 0.060000 0
0.180000 0.060000 0
0.200000 0.060000 0
0.220000 0.060000 0
0.240000 0.060000 0
0.260000 0.060000 0
0.280000 0.060000 0
0.300000 0.060000 0
0.320000 0.060000 0
0.340000 0.060000 0
0.360000 0.060000 0
0.380000 0.060000 0
0.400000 0.060000 0
0.420000 0.060000 0
0.440000 0.060000 0
0.460000 0.060000 0
0.480000 0.060000 0
0.500000 0.060000 0
0.520000 0.060000 0
0.540000 0.060000 0
0.560000 0.060000 0
0.580000 0.060000 0
0.600000 0.060000 0
0.620000 0.060000 0
0.640000 0.060000 0
0.660000 0.060000 0
0.680000 0.060000 0
0.700000 0.060000 0
0.720000 0.060000 0
0.740000 0.060000 0
0.760000 0.060000 0
0.780000 0.060000 0
0.800000 0.060000 0
0.820000 0.060000 0
0.840000 0.060000 0
0.860000 0.060000 0
0.880000 0.060000 0
0.900000 0.060000 0
0.920000 0.060000 0
0.940000 0.060000 0
0.960000 0.060000 0
0.980000 0.060000 0
1.000000 0.060000 0
0.000000 0.080000 0
0.020000 0.080000 0
0.040000 0.080000 0
0.060000 0.080000 0
0.080000 0.080000 0
0.100000 0.080000 0
0.120000 0.080000 0
0.140000 0.080000 0
0.160000 0.080000 0
0.180000 0.080000 0
0.200000 0.080000 0
0.220000 0.080000 0
0.240000 0.080000 0
0.260000 0.080000 0
0.280000 0.080000 0
0.300000 0.080000 0
0.320000 0.080000 0
0.340000 0.080000 0
0.360000 0.080000 0
0.380000 0.080000 0
0.400000 0.080000 0
0.420000 0.080000 0
0.440000 0.080000 0
0.460000 0.080000 0
0.480000 0.080000 0
0.500000 0.080000 0
0.520000 0.080000 0
0.540000 0.080000 0
0.560000 0.080000 0
0.580000 0.080000 0
0.600000 0.080000 0
0.620000 0.080000 0
0.640000 0.080000 0
0.660000 0.080000 0
0.680000 0.080000 0
0.700000 0.080000 0
0.720000 0.080000 0
0.740000 0.080000 0
0.760000 0.080000 0
0.780000 0.080000 0
0.800000 0.080000 0
0.820000 0.080000 0
0.840000 0.080000 0
0.860000 0.080000 0
0.880000 0.080000 0
0.900000 0.080000 0
0.920000 0.080000 0
0.940000 0.080000 0
0.960000 0.080000 0
0.980000 0.080000 0
1.000000 0.080000 0
0.000000 0.100000 0
0.020000 0.100000 0
0.040000 0.100000 0
0.060000 0.100000 0
0.080000 0.100000 0
0.100000 0.100000 0
0.120000 0.100000 0
0.140000 0.100000 0
0.160000 0.100000 0
0.180000 0.100000 0
0.200000 0.100000 0
0.220000 0.100000 0
0.240000 0.100000 0
0.260000 0.100000 0
0.280000 0.100000 0
0.300000 0.100000 0
0.320000 0.100000 0
0.340000 0.100000 0
0.360000 0.100000 0
0.380000 0.100000 0
0.400000 0.100000 0
0.420000 0.100000 0
0.440000 0.100000 0
0.460000 0.100000 0
0.480000 0.100000 0
0.500000 0.100000 0
0.520000 0.100000 0
0.540000 0.100000 0
0.560000 0.100000 0
0.580000 0.100000 0
0.600000 0.100000 0
0.620000 0.100000 0
0.640000 0.100000 0
0.660000 0.100000 0
0.680000 0.100000 0
0.700000 0.100000 0
0.720000 0.100000 0
0.740000 0.100000 0
0.760000 0.100000 0
0.780000 0.100000 0
0.800000 0.100000 0
0.820000 0.100000 0
0.840000 0.100000 0
0.860000 0.100000 0
0.880000 0.100000 0
0.900000 0.100000 0
0.920000 0.100000 0
0.940000 0.100000 0
0.960000 0.100000 0
0.980000 0.100000 0
1.000000 0.100000 0
0.000000 0.120000 0
0.020000 0.120000 0
0.040000 0.120000 0
0.060000 0.120000 0
0.080000 0.120000 0
0.100000 0.120000 0
0.120000 0.120000 0
0.140000 0.120000 0
0.160000 0.120000 0
0.180000 0.120000 0
0.200000 0.120000 0
0.220000 0.120000 0
0.240000 0.120000 0
0.260000 0.120000 0
0.280000 0.120000 0
0.300000 0.120000 0
0.320000 0.120000 0
0.340000 0.120000 0
0.360000 0.120000 0
0.380000 0.120000 0
0.400000 0.120000 0
0.420000 0.120000 0
0.440000 0.120000 0
0.460000 0.120000 0
0.480000 0.120000 0
0.500000 0.120000 0
0.520000 0.120000 0
0.540000 0.120000 0
0.560000 0.120000 0
0.580000 0.120000 0
0.600000 0.120000 0
0.620000 0.120000 0
0.640000 0.120000 0
0.660000 0.120000 0
0.680000 0.120000 0
0.700000 0.120000 0
0.720000 0.120000 0
0.740000 0.120000 0
0.760000 0.120000 0
0.780000 0.120000 0
0.800000 0.120000 0
0.820000 0.120000 0
0.840000 0.120000 0
0.860000 0.120000 0
0.880000 0.120000 0
0.900000 0.120000 0
0.920000 0.120000 0
0.940000 0.120000 0
0.960000 0.120000 0
0.980000 0.120000 0
1.000000 0.120000 0
0.000000 0.140000 0
0.020000 0.140000 0
0.040000 0.140000 0
0.060000 0.140000 0
0.080000 0.140000 0
0.100000 0.140000 0
0.120000 0.140000 0
0.140000 0.140000 0
0.160000 0.140000 0
0.180000 0.140000 0
0.200000 0.140000 0
0.220000 0.140000 0
0.240000 0.140000 0
0.260000 0.140000 0
0.280000 0.140000 0
0.300000 0.140000 0
0.320000 0.140000 0
0.340000 0.140000 0
0.360000 0.140000 0
0.380000 0.140000 0
0.400000 0.140000 0
0.420000 0.140000 0
0.440000 0.140000 0
0.460000 0.140000 0
0.480000 0.140000 0
0.500000 0.140000 0
0.520000 0.140000 0
0.540000 0.140000 0
0.560000 0.140000 0
0.580000 0.140000 0
0.600000 0.140000 0
0.620000 0.140000 0
0.640000 0.140000 0
0.660000 0.140000 0
0.680000 0.140000 0
0.700000 0.140000 0
0.720000 0.140000 0
0.740000 0.140000 0
0.760000 0.140000 0
0.780000 0.140000 0
0.800000 0.140000 0
0.820000 0.140000 0
0.840000 0.140000 0
0.860000 0.140000 0
0.880000 0.140000 0
0.900000 0.140000 0
0.920000 0.140000 0
0.940000 0.140000 0
0.960000 0.140000 0
0.980000 0.140000 0
1.000000 0.140000 0
0.000000 0.160000 0
0.020000 0.160000 0
0.040000 0.160000 0
0.060000 0.160000 0
0.080000 0.160000 0
0.100000 0.160000 0
0.120000 0.160000 0
0.140000 0.160000 0
0.160000 0.160000 0
0.180000 0.160000 0
0.200000 0.160000 0
0.220000 0.160000 0
0.240000 0.160000 0
0.260000 0.160000 0
0.280000 0.160000 0
0.300000 0.160000 0
0.320000 0.160000 0
0.340000 0.160000 0
0.360000 0.160000 0
0.380000 0.160000 0
0.400000 0.160000 0
0.420000 0.160000 0
0.440000 0.160000 0
0.460000 0.160000 0
0.480000 0.160000 0
0.500000 0.160000 0
0.520000 0.160000 0
0.540000 0.160000 0
0.560000 0.160000 0
0.580000 0.160000 0
0.600000 0.160000 0
0.620000 0.160000 0
0.640000 0.160000 0
0.660000 0.160000 0
0.680000 0.160000 0
0.700000 0.160000 0
0.720000 0.160000 0
0.740000 0.160000 0
0.760000 0.160000 0
0.780000 0.160000 0
0.800000 0.160000 0
0.820000 0.160000 0
0.840000 0.160000 0
0.860000 0.160000 0
0.880000 0.160000 0
0.900000 0.160000 0
0.920000 0.160000 0
0.940000 0.160000 0
0.960000 0.160000 0
0.980000 0.160000 0
1.000000 0.160000 0
0.000000 0.180000 0
0.020000 0.180000 0
0.040000 0.180000 0
0.060000 0.180000 0
0.080000 0.180000 0
0.100000 0.180000 0
0.120000 0.180000 0
0.140000 0.180000 0
0.160000 0.180000 0
0.180000 0.180000 0
0.200000 0.180000 0
0.220000 0.180000 0
0.240000 0.180000 0
0.260000 0.180000 0
0.280000 0.180000 0
0.300000 0.180000 0
0.320000 0.180000 0
0.340000 0.180000 0
0.360000 0.180000 0
0.380000 0.180000 0
0.400000 0.180000 0
0.420000 0.180000 0
0.440000 0.180000 0
0.460000 0.180000 0
0.480000 0.180000 0
0.500000 0.180000 0
0.520000 0.180000 0
0.540000 0.180000 0
0.560000 0.180000 0
0.580000 0.180000 0
0.600000 0.180000 0
0.620000 0.180000 0
[...]
POINT_DATA 2601 

VECTORS velocity float
0.000000 0.000000 0
0.000001 0.000000 0
0.000001 0.000000 0
0.000000 0.000000 0
-0.000000 0.000000 0
-0.000000 0.000000 0
-0.000000 0.000000 0
-0.000000 0.000000 0
-0.000000 0.000000 0
0.000000 0.000000 0
0.000000 0.000000 0
0.000000 0.000000 0
0.000000 0.000000 0
-0.000000 0.000000 0
-0.000000 0.000000 0
-0.000000 0.000000 0
-0.000000 0.000000 0
-0.000000 0.000000 0
-0.000000 0.000000 0
-0.000000 0.000000 0
0.000000 0.000000 0
-0.000000 0.000000 0
-0.000000 0.000000 0
-0.000000 0.000000 0
-0.000000 0.000000 0
-0.000000 0.000000 0
-0.000000 0.000000 0
-0.000000 0.000000 0
-0.000000 0.000000 0
-0.000000 0.000000 0
-0.000000 0.000000 0
-0.000000 0.000000 0
-0.000000 0.000000 0
-0.000000 0.000000 0
-0.000000 0.000000 0
0.000000 0.000000 0
0.000000 0.000000 0
0.000000 0.000000 0
0.000000 0.000000 0
0.000000 0.000000 0
-0.000000 0.000000 0
-0.000000 0.000000 0
-0.000000 0.000000 0
-0.000000 0.000000 0
-0.000000 0.000000 0
0.000000 0.000000 0
0.000000 0.000000 0
0.000000 0.000000 0
0.000000 0.000000 0
0.000000 0.000000 0
0.000000 0.000000 0
0.000000 0.000001 0
0.000061 -0.000059 0
0.000082 -0.000022 0
-0.000014 0.000055 0
-0.000255 0.000143 0
-0.000645 0.000227 0
-0.001170 0.000301 0
-0.001814 0.000362 0
-0.002555 0.000411 0
-0.003373 0.000449 0
-0.004249 0.000475 0
-0.005165 0.000493 0
-0.006105 0.000502 0
-0.007054 0.000503 0
-0.007999 0.000498 0
-0.008925 0.000485 0
-0.009821 0.000467 0
-0.010673 0.000442 0
-0.011470 0.000410 0
-0.012199 0.000371 0
-0.012847 0.000326 0
-0.013402 0.000274 0
-0.013853 0.000216 0
-0.014188 0.000152 0
-0.014398 0.000082 0
-0.014474 0.000009 0
-0.014410 -0.000068 0
-0.014203 -0.000146 0
-0.013852 -0.000225 0
-0.013358 -0.000301 0
-0.012729 -0.000373 0
-0.011973 -0.000439 0
-0.011105 -0.000496 0
-0.010141 -0.000543 0
-0.009102 -0.000578 0
-0.008011 -0.000600 0
-0.006893 -0.000607 0
-0.005775 -0.000598 0
-0.004685 -0.000574 0
-0.003650 -0.000535 0
-0.002696 -0.000481 0
-0.001847 -0.000415 0
-0.001123 -0.000339 0
-0.000539 -0.000255 0
-0.000106 -0.000167 0
0.000173 -0.000079 0
0.000304 0.000002 0
0.000306 0.000066 0
0.000212 0.000100 0
0.000082 0.000082 0
0.000000 -0.000000 0
0.000000 0.000001 0
0.000025 -0.000081 0
-0.000075 0.000075 0
-0.000386 0.000337 0
-0.000944 0.000630 0
-0.001752 0.000914 0
-0.002794 0.001168 0
-0.004042 0.001384 0
-0.005461 0.001559 0
-0.007019 0.001694 0
-0.008681 0.001792 0
-0.010415 0.001856 0
-0.012192 0.001889 0
-0.013984 0.001893 0
-0.015765 0.001871 0
-0.017508 0.001822 0
-0.019191 0.001748 0
-0.020789 0.001649 0
-0.022278 0.001525 0
-0.023636 0.001377 0
-0.024839 0.001203 0
-0.025865 0.001006 0
-0.026693 0.000786 0
-0.027303 0.000545 0
-0.027678 0.000286 0
-0.027804 0.000013 0
-0.027670 -0.000271 0
-0.027271 -0.000559 0
-0.026607 -0.000845 0
-0.025682 -0.001123 0
-0.024509 -0.001385 0
-0.023106 -0.001624 0
-0.021497 -0.001832 0
-0.019714 -0.002003 0
-0.017792 -0.002131 0
-0.015775 -0.002209 0
-0.013706 -0.002236 0
-0.011634 -0.002208 0
-0.009608 -0.002125 0
-0.007676 -0.001989 0
-0.005885 -0.001803 0
-0.004275 -0.001574 0
-0.002882 -0.001308 0
-0.001735 -0.001016 0
-0.000849 -0.000712 0
-0.000231 -0.000410 0
0.000132 -0.000133 0
0.000268 0.000091 0
0.000231 0.000224 0
0.000102 0.000212 0
0.000000 0.000000 0
0.000000 0.000000 0
-0.000056 0.000016 0
-0.000350 0.000387 0
-0.000948 0.000923 0
-0.001877 0.001510 0
-0.003136 0.002078 0
-0.004699 0.002591 0
-0.006532 0.003030 0
-0.008593 0.003389 0
-0.010838 0.003668 0
-0.013221 0.003872 0
-0.015700 0.004004 0
-0.018234 0.004070 0
-0.020785 0.004075 0
-0.023315 0.004022 0
-0.025789 0.003912 0
-0.028172 0.003748 0
-0.030430 0.003529 0
-0.032531 0.003257 0
-0.034440 0.002932 0
-0.036127 0.002555 0
-0.037561 0.002128 0
-0.038712 0.001653 0
-0.039554 0.001136 0
-0.040066 0.000583 0
-0.040227 0.000001 0
-0.040025 -0.000601 0
-0.039454 -0.001210 0
-0.038514 -0.001814 0
-0.037213 -0.002398 0
-0.035568 -0.002949 0
-0.033604 -0.003451 0
-0.031356 -0.003888 0
-0.028865 -0.004248 0
-0.026181 -0.004518 0
-0.023360 -0.004686 0
-0.020464 -0.004747 0
-0.017557 -0.004696 0
-0.014704 -0.004532 0
-0.011971 -0.004258 0
-0.009420 -0.003883 0
-0.007107 -0.003418 0
-0.005079 -0.002879 0
-0.003373 -0.002288 0
-0.002014 -0.001671 0
-0.001009 -0.001060 0
-0.000345 -0.000497 0
0.000012 -0.000033 0
0.000123 0.000265 0
0.000076 0.000313 0
0.000000 0.000000 0
0.000000 0.000000 0
-0.000154 0.000269 0
-0.000676 0.000965 0
-0.001602 0.001864 0
-0.002938 0.002818 0
-0.004669 0.003737 0
-0.006761 0.004566 0
-0.009172 0.005279 0
-0.011851 0.005864 0
-0.014746 0.006322 0
-0.017804 0.006655 0
-0.020973 0.006870 0
-0.024203 0.006974 0
-0.027448 0.006974 0
-0.030660 0.006875 0
-0.033796 0.006679 0
-0.036811 0.006390 0
-0.039664 0.006008 0
-0.042313 0.005535 0
-0.044716 0.004973 0
-0.046834 0.004324 0
-0.048631 0.003591 0
-0.050069 0.002780 0
-0.051118 0.001899 0
-0.051751 0.000958 0
-0.051945 -0.000028 0
-0.051686 -0.001044 0
-0.050966 -0.002070 0
-0.049787 -0.003086 0
-0.048159 -0.004069 0
-0.046104 -0.004993 0
-0.043651 -0.005836 0
-0.040843 -0.006571 0
-0.037731 -0.007178 0
-0.034375 -0.007635 0
-0.030842 -0.007926 0
-0.027207 -0.008040 0
-0.023547 -0.007968 0
-0.019942 -0.007710 0
-0.016471 -0.007273 0
-0.013209 -0.006668 0
-0.010224 -0.005915 0
-0.007576 -0.005041 0
-0.005309 -0.004081 0
-0.003455 -0.003076 0
-0.002025 -0.002080 0
-0.001009 -0.001154 0
-0.000374 -0.000376 0
-0.000058 0.000160 0
0.000026 0.000335 0
0.000000 0.000000 0
0.000000 -0.000000 0
-0.000254 0.000691 0
-0.001020 0.001835 0
-0.002293 0.003186 0
-0.004055 0.004577 0
-0.006271 0.005902 0
-0.008897 0.007094 0
-0.011878 0.008119 0
-0.015159 0.008962 0
-0.018678 0.009620 0
-0.022376 0.010098 0
-0.026193 0.010404 0
-0.030074 0.010546 0
-0.033962 0.010532 0
-0.037804 0.010370 0
-0.041549 0.010063 0
-0.045145 0.009616 0
-0.048543 0.009030 0
-0.051693 0.008309 0
-0.054549 0.007454 0
-0.057063 0.006470 0
-0.059194 0.005363 0
-0.060899 0.004141 0
-0.062143 0.002818 0
-0.062895 0.001410 0
-0.063131 -0.000064 0
-0.062832 -0.001580 0
-0.061991 -0.003109 0
-0.060611 -0.004621 0
-0.058702 -0.006082 0
-0.056290 -0.007457 0
-0.053409 -0.008711 0
-0.050106 -0.009808 0
-0.046440 -0.010717 0
-0.042479 -0.011407 0
-0.038300 -0.011854 0
-0.033986 -0.012042 0
-0.029629 -0.011961 0
-0.025318 -0.011607 0
-0.021146 -0.010991 0
-0.017198 -0.010130 0
-0.013556 -0.009051 0
-0.010287 -0.007794 0
-0.007448 -0.006409 0
-0.005076 -0.004955 0
-0.003191 -0.003506 0
-0.001786 -0.002148 0
-0.000833 -0.000984 0
-0.000277 -0.000134 0
-0.000036 0.000254 0
0.000000 -0.000000 0
0.000000 -0.000001 0
-0.000353 0.001288 0
-0.001364 0.003005 0
-0.002990 0.004899 0
-0.005183 0.006797 0
-0.007888 0.008579 0
-0.011046 0.010174 0
-0.014592 0.011541 0
-0.018460 0.012664 0
-0.022583 0.013538 0
-0.026893 0.014170 0
-0.031327 0.014568 0
-0.035822 0.014743 0
-0.040315 0.014705 0
-0.044748 0.014462 0
-0.049062 0.014020 0
-0.053200 0.013383 0
-0.057107 0.012556 0
-0.060727 0.011541 0
-0.064007 0.010343 0
-0.066897 0.008969 0
-0.069347 0.007426 0
-0.071312 0.005729 0
-0.072752 0.003895 0
-0.073633 0.001945 0
-0.073926 -0.000091 0
-0.073613 -0.002183 0
-0.072685 -0.004291 0
-0.071142 -0.006375 0
-0.068998 -0.008390 0
-0.066279 -0.010287 0
-0.063022 -0.012019 0
-0.059278 -0.013540 0
-0.055111 -0.014806 0
-0.050595 -0.015776 0
-0.045815 -0.016419 0
-0.040865 -0.016710 0
-0.035843 -0.016636 0
-0.030852 -0.016193 0
-0.025994 -0.015393 0
-0.021368 -0.014258 0
-0.017065 -0.012826 0
-0.013166 -0.011149 0
-0.009735 -0.009291 0
-0.006822 -0.007334 0
-0.004453 -0.005370 0
-0.002630 -0.003511 0
-0.001333 -0.001885 0
-0.000514 -0.000638 0
-0.000101 0.000058 0
0.000000 -0.000000 0
0.000000 -0.000000 0
-0.000448 0.002055 0
-0.001699 0.004473 0
-0.003674 0.007005 0
-0.006296 0.009476 0
-0.009487 0.011765 0
-0.013171 0.013798 0
-0.017272 0.015533 0
-0.021713 0.016952 0
-0.026421 0.018053 0
-0.031322 0.018843 0
-0.036346 0.019332 0
-0.041426 0.019533 0
-0.046494 0.019458 0
-0.051487 0.019117 0
-0.056340 0.018515 0
-0.060993 0.017661 0
-0.065385 0.016557 0
-0.069455 0.015210 0
-0.073146 0.013624 0
-0.076401 0.011809 0
-0.079168 0.009778 0
-0.081398 0.007547 0
-0.083045 0.005139 0
-0.084073 0.002583 0
-0.084450 -0.000084 0
-0.084155 -0.002821 0
-0.083177 -0.005580 0
-0.081515 -0.008307 0
-0.079182 -0.010945 0
-0.076202 -0.013434 0
-0.072617 -0.015712 0
-0.068478 -0.017719 0
-0.063853 -0.019400 0
-0.058820 -0.020702 0
-0.053473 -0.021584 0
-0.047910 -0.022014 0
-0.042242 -0.021973 0
-0.036579 -0.021456 0
-0.031037 -0.020475 0
-0.025725 -0.019059 0
-0.020746 -0.017254 0
-0.016195 -0.015124 0
-0.012148 -0.012752 0
-0.008666 -0.010238 0
-0.005784 -0.007699 0
-0.003518 -0.005268 0
-0.001855 -0.003100 0
-0.000758 -0.001366 0
-0.000166 -0.000260 0
0.000000 -0.000000 0
0.000000 -0.000000 0
-0.000538 0.002987 0
-0.002022 0.006232 0
-0.004338 0.009497 0
-0.007378 0.012609 0
-0.011046 0.015454 0
-0.015245 0.017958 0
-0.019887 0.020083 0
-0.024887 0.021812 0
-0.030161 0.023147 0
-0.035632 0.024095 0
-0.041224 0.024672 0
-0.046865 0.024891 0
-0.052485 0.024766 0
-0.058014 0.024308 0
-0.063386 0.023527 0
-0.068535 0.022428 0
-0.073396 0.021017 0
-0.077905 0.019302 0
-0.082001 0.017290 0
-0.085623 0.014991 0
-0.088715 0.012423 0
-0.091223 0.009606 0
-0.093099 0.006570 0
-0.094302 0.003350 0
-0.094796 -0.000009 0
-0.094559 -0.003456 0
-0.093574 -0.006932 0
-0.091839 -0.010371 0
-0.089364 -0.013702 0
-0.086173 -0.016852 0
-0.082304 -0.019744 0
-0.077813 -0.022304 0
-0.072767 -0.024463 0
-0.067249 -0.026156 0
-0.061357 -0.027329 0
-0.055197 -0.027941 0
-0.048887 -0.027967 0
-0.042550 -0.027398 0
-0.036311 -0.026248 0
-0.030293 -0.024549 0
-0.024614 -0.022356 0
-0.019381 -0.019747 0
-0.014686 -0.016821 0
-0.010601 -0.013698 0
-0.007178 -0.010518 0
-0.004442 -0.007441 0
-0.002394 -0.004645 0
-0.001007 -0.002326 0
-0.000232 -0.000700 0
0.000000 -0.000000 0
0.000000 0.000000 0
-0.000624 0.004077 0
-0.002331 0.008273 0
-0.004974 0.012362 0
-0.008420 0.016184 0
-0.012548 0.019632 0
-0.017248 0.022640 0
-0.022415 0.025174 0
-0.027954 0.027226 0
-0.033777 0.028799 0
-0.039798 0.029906 0
-0.045938 0.030566 0
-0.052120 0.030794 0
-0.058270 0.030607 0
-0.064318 0.030018 0
-0.070193 0.029036 0
-0.075825 0.027671 0
-0.081148 0.025928 0
-0.086093 0.023815 0
-0.090597 0.021342 0
-0.094595 0.018523 0
-0.098026 0.015377 0
-0.100835 0.011931 0
-0.102969 0.008217 0
-0.104381 0.004281 0
-0.105035 0.000173 0
-0.104900 -0.004044 0
-0.103957 -0.008300 0
-0.102200 -0.012517 0
-0.099634 -0.016611 0
-0.096281 -0.020493 0
-0.092177 -0.024071 0
-0.087375 -0.027257 0
-0.081943 -0.029963 0
-0.075967 -0.032112 0
-0.069548 -0.033637 0
-0.062799 -0.034484 0
-0.055846 -0.034620 0
-0.048822 -0.034033 0
-0.041865 -0.032732 0
-0.035114 -0.030755 0
-0.028700 -0.028165 0
-0.022747 -0.025052 0
-0.017364 -0.021532 0
-0.012640 -0.017746 0
-0.008640 -0.013858 0
-0.005406 -0.010053 0
-0.002951 -0.006535 0
-0.001260 -0.003528 0
-0.000297 -0.001266 0
0.000000 -0.000000 0
0.000000 0.000000 0
-0.000705 0.005318 0
-0.002623 0.010582 0
-0.005579 0.015586 0
-0.009414 0.020184 0
-0.013985 0.024281 0
-0.019164 0.027824 0
-0.024836 0.030789 0
-0.030896 0.033174 0
-0.037246 0.034990 0
-0.043796 0.036256 0
-0.050463 0.036994 0
-0.057167 0.037224 0
-0.063832 0.036964 0
-0.070383 0.036230 0
-0.076748 0.035034 0
-0.082856 0.033383 0
-0.088636 0.031286 0
-0.094020 0.028751 0
-0.098940 0.025791 0
-0.103329 0.022421 0
-0.107122 0.018663 0
-0.110260 0.014549 0
-0.112687 0.010116 0
-0.114351 0.005416 0
-0.115210 0.000509 0
-0.115229 -0.004534 0
-0.114382 -0.009632 0
-0.112659 -0.014694 0
-0.110059 -0.019620 0
-0.106598 -0.024308 0
-0.102308 -0.028650 0
-0.097238 -0.032538 0
-0.091458 -0.035870 0
-0.085051 -0.038551 0
-0.078121 -0.040497 0
-0.070788 -0.041643 0
-0.063186 -0.041944 0
-0.055458 -0.041379 0
-0.047758 -0.039956 0
-0.040237 -0.037714 0
-0.033047 -0.034722 0
-0.026329 -0.031083 0
-0.020212 -0.026928 0
-0.014803 -0.022422 0
-0.010187 -0.017752 0
-0.006421 -0.013130 0
-0.003533 -0.008790 0
-0.001523 -0.004980 0
-0.000363 -0.001961 0
0.000000 -0.000000 0
0.000000 0.000000 0
-0.000781 0.006701 0
-0.002899 0.013147 0
-0.006151 0.019152 0
-0.010353 0.024589 0
-0.015345 0.029382 0
-0.020982 0.033491 0
-0.027136 0.036906 0
-0.033692 0.039635 0
-0.040547 0.041699 0
-0.047605 0.043124 0
-0.054778 0.043936 0
-0.061985 0.044162 0
-0.069146 0.043822 0
-0.076186 0.042934 0
-0.083031 0.041509 0
-0.089609 0.039559 0
-0.095847 0.037093 0
-0.101676 0.034119 0
-0.107023 0.030650 0
-0.111821 0.026705 0
-0.116003 0.022309 0
-0.119503 0.017495 0
-0.122262 0.012308 0
-0.124224 0.006804 0
-0.125340 0.001051 0
-0.125569 -0.004871 0
-0.124880 -0.010870 0
-0.123251 -0.016841 0
-0.120677 -0.022672 0
-0.117167 -0.028244 0
-0.112746 -0.033431 0
-0.107459 -0.038107 0
-0.101369 -0.042151 0
-0.094561 -0.045449 0
-0.087140 -0.047899 0
-0.079230 -0.049419 0
-0.070973 -0.049950 0
-0.062523 -0.049461 0
-0.054048 -0.047954 0
-0.045719 -0.045466 0
-0.037705 -0.042073 0
-0.030170 -0.037887 0
-0.023265 -0.033059 0
-0.017120 -0.027771 0
-0.011840 -0.022240 0
-0.007501 -0.016706 0
-0.004151 -0.011433 0
-0.001800 -0.006698 0
-0.000432 -0.002790 0
0.000000 -0.000000 0
0.000000 0.000000 0
-0.000853 0.008217 0
-0.003157 0.015952 0
-0.006685 0.023040 0
-0.011233 0.029378 0
-0.016621 0.034910 0
-0.022689 0.039616 0
-0.029299 0.043500 0
-0.036326 0.046585 0
-0.043659 0.048902 0
-0.051200 0.050487 0
-0.058857 0.051373 0
-0.066545 0.051591 0
-0.074185 0.051166 0
-0.081701 0.050116 0
-0.089016 0.048457 0
-0.096058 0.046199 0
-0.102755 0.043352 0
-0.109033 0.039927 0
-0.114822 0.035937 0
-0.120050 0.031400 0
-0.124647 0.026345 0
-0.128545 0.020808 0
-0.131679 0.014838 0
-0.133988 0.008495 0
-0.135417 0.001854 0
-0.135917 -0.004995 0
-0.135448 -0.011950 0
-0.133982 -0.018896 0
-0.131502 -0.025704 0
-0.128008 -0.032239 0
-0.123518 -0.038358 0
-0.118068 -0.043916 0
-0.111716 -0.048768 0
-0.104545 -0.052780 0
-0.096657 -0.055828 0
-0.088181 -0.057811 0
-0.079265 -0.058651 0
-0.070077 -0.058303 0
-0.060797 -0.056761 0
-0.051616 -0.054057 0
-0.042728 -0.050270 0
-0.034319 -0.045522 0
-0.026566 -0.039979 0
-0.019625 -0.033847 0
-0.013626 -0.027370 0
-0.008668 -0.020819 0
-0.004816 -0.014491 0
-0.002098 -0.008699 0
-0.000506 -0.003761 0
0.000000 -0.000000 0
0.000000 0.000000 0
-0.000918 0.009858 0
-0.003396 0.018980 0
-0.007180 0.027228 0
-0.012048 0.034525 0
-0.017804 0.040838 0
-0.024275 0.046169 0
-0.031310 0.050543 0
-0.038777 0.053996 0
-0.046561 0.056574 0
-0.054558 0.058321 0
-0.062673 0.059282 0
-0.070820 0.059491 0
-0.078919 0.058977 0
-0.086893 0.057764 0
-0.094667 0.055867 0
-0.102167 0.053298 0
-0.109321 0.050068 0
-0.116055 0.046186 0
-0.122297 0.041667 0
-0.127974 0.036530 0
-0.133014 0.030804 0
-0.137345 0.024527 0
-0.140897 0.017752 0
-0.143604 0.010542 0
-0.145403 0.002979 0
-0.146237 -0.004840 0
-0.146057 -0.012805 0
-0.144824 -0.020787 0
-0.142511 -0.028646 0
-0.139107 -0.036228 0
-0.134617 -0.043371 0
-0.129069 -0.049909 0
-0.122513 -0.055675 0
-0.115023 -0.060508 0
-0.106703 -0.064263 0
-0.097680 -0.066811 0
-0.088110 -0.068054 0
-0.078170 -0.067929 0
-0.068059 -0.066414 0
-0.057986 -0.063535 0
-0.048170 -0.059370 0
-0.038827 -0.054049 0
-0.030160 -0.047753 0
-0.022357 -0.040711 0
-0.015576 -0.033197 0
-0.009942 -0.025516 0
-0.005542 -0.018003 0
-0.002423 -0.011007 0
-0.000587 -0.004888 0
0.000000 -0.000000 0
0.000000 0.000000 0
-0.000979 0.011613 0
-0.003613 0.022213 0
-0.007631 0.031692 0
-0.012792 0.040002 0
-0.018886 0.047137 0
-0.025726 0.053122 0
-0.033154 0.058003 0
-0.041029 0.061837 0
-0.049231 0.064683 0
-0.057652 0.066599 0
-0.066196 0.067636 0
-0.074776 0.067838 0
-0.083311 0.067239 0
-0.091724 0.065863 0
-0.099941 0.063730 0
-0.107889 0.060853 0
-0.115495 0.057240 0
-0.122687 0.052903 0
-0.129392 0.047856 0
-0.135535 0.042117 0
-0.141042 0.035716 0
-0.145838 0.028691 0
-0.149849 0.021097 0
-0.153003 0.013001 0
-0.155229 0.004487 0
-0.156462 -0.004341 0
-0.156642 -0.013363 0
-0.155718 -0.022441 0
-0.153651 -0.031421 0
-0.150416 -0.040134 0
-0.146005 -0.048396 0
-0.140434 -0.056020 0
-0.133741 -0.062814 0
-0.125992 -0.068590 0
-0.117285 -0.073171 0
-0.107747 -0.076404 0
-0.097537 -0.078161 0
-0.086844 -0.078354 0
-0.075880 -0.076945 0
-0.064878 -0.073946 0
-0.054083 -0.069430 0
-0.043741 -0.063532 0
-0.034091 -0.056449 0
-0.025353 -0.048432 0
-0.017719 -0.039785 0
-0.011345 -0.030853 0
-0.006343 -0.022011 0
-0.002781 -0.013654 0
-0.000677 -0.006184 0
0.000000 -0.000000 0
0.000000 -0.000000 0
-0.001032 0.013471 0
-0.003807 0.025632 0
-0.008035 0.036408 0
-0.013460 0.045780 0
-0.019857 0.053772 0
-0.027032 0.060437 0
-0.034815 0.065846 0
-0.043061 0.070073 0
-0.051645 0.073196 0
-0.060456 0.075287 0
-0.069396 0.076406 0
-0.078378 0.076606 0
-0.087322 0.075925 0
-0.096149 0.074394 0
-0.104789 0.072032 0
-0.113169 0.068852 0
-0.121218 0.064866 0
-0.128865 0.060082 0
-0.136035 0.054514 0
-0.142654 0.048180 0
-0.148647 0.041107 0
-0.153936 0.033335 0
-0.158443 0.024917 0
-0.162089 0.015922 0
-0.164797 0.006438 0
-0.166491 -0.003428 0
-0.167102 -0.013549 0
-0.166565 -0.023778 0
-0.164827 -0.033948 0
-0.161848 -0.043873 0
-0.157605 -0.053353 0
-0.152097 -0.062173 0
-0.145349 -0.070116 0
-0.137414 -0.076964 0
-0.128382 -0.082508 0
-0.118376 -0.086559 0
-0.107556 -0.088958 0
-0.096118 -0.089587 0
-0.084292 -0.088380 0
-0.072331 -0.085332 0
-0.060509 -0.080507 0
-0.049107 -0.074041 0
-0.038401 -0.066141 0
-0.028650 -0.057083 0
-0.020086 -0.047205 0
-0.012899 -0.036891 0
-0.007234 -0.026566 0
-0.003182 -0.016674 0
-0.000777 -0.007669 0
0.000000 -0.000000 0
0.000000 -0.000000 0
-0.001079 0.015420 0
-0.003976 0.029216 0
-0.008388 0.041345 0
-0.014044 0.051824 0
-0.020709 0.060708 0
-0.028179 0.068079 0
-0.036278 0.074033 0
-0.044855 0.078667 0
-0.053780 0.082077 0
-0.062942 0.084350 0
-0.072240 0.085558 0
-0.081588 0.085763 0
-0.090906 0.085010 0
-0.100119 0.083331 0
-0.109155 0.080751 0
-0.117945 0.077282 0
-0.126420 0.072935 0
-0.134509 0.067719 0
-0.142140 0.061645 0
-0.149239 0.054730 0
-0.155729 0.046998 0
-0.161530 0.038487 0
-0.166561 0.029250 0
-0.170738 0.019354 0
-0.173977 0.008890 0
-0.176192 -0.002036 0
-0.177303 -0.013289 0
-0.177231 -0.024716 0
-0.175908 -0.036138 0
-0.173278 -0.047356 0
-0.169299 -0.058147 0
-0.163952 -0.068277 0
-0.157244 -0.077497 0
-0.149214 -0.085556 0
-0.139936 -0.092210 0
-0.129527 -0.097230 0
-0.118146 -0.100418 0
-0.105992 -0.101618 0
-0.093309 -0.100732 0
-0.080372 -0.097728 0
-0.067484 -0.092654 0
-0.054964 -0.085641 0
-0.043129 -0.076906 0
-0.032285 -0.066747 0
-0.022706 -0.055536 0
-0.014627 -0.043704 0
-0.008229 -0.031728 0
-0.003631 -0.020111 0
-0.000890 -0.009365 0
0.000000 -0.000000 0
0.000000 -0.000000 0
-0.001118 0.017447 0
-0.004119 0.032941 0
-0.008687 0.046475 0
-0.014540 0.058101 0
-0.021434 0.067907 0
-0.029157 0.076006 0
-0.037528 0.082522 0
-0.046391 0.087575 0
-0.055613 0.091283 0
-0.065081 0.093746 0
-0.074695 0.095053 0
-0.084367 0.095272 0
-0.094019 0.094456 0
-0.103579 0.092643 0
-0.112977 0.089858 0
-0.122147 0.086117 0
-0.131021 0.081430 0
-0.139531 0.075802 0
-0.147609 0.069244 0
-0.155179 0.061769 0
-0.162166 0.053399 0
-0.168488 0.044168 0
-0.174063 0.034125 0
-0.178800 0.023338 0
-0.182609 0.011892 0
-0.185398 -0.000102 0
-0.187072 -0.012510 0
-0.187541 -0.025172 0
-0.186720 -0.037901 0
-0.184535 -0.050483 0
-0.180924 -0.062679 0
-0.175847 -0.074228 0
-0.169290 -0.084855 0
-0.161272 -0.094272 0
-0.151850 -0.102194 0
-0.141127 -0.108349 0
-0.129255 -0.112493 0
-0.116435 -0.114424 0
-0.102920 -0.114000 0
-0.089006 -0.111156 0
-0.075027 -0.105915 0
-0.061340 -0.098396 0
-0.048308 -0.088820 0
-0.036289 -0.077506 0
-0.025609 -0.064862 0
-0.016551 -0.051369 0
-0.009341 -0.037563 0
-0.004136 -0.024012 0
-0.001019 -0.011300 0
0.000000 -0.000000 0
0.000000 0.000000 0
-0.001149 0.019539 0
-0.004234 0.036784 0
-0.008927 0.051766 0
-0.014941 0.064571 0
-0.022023 0.075326 0
-0.029955 0.084174 0
-0.038551 0.091267 0
-0.047652 0.096752 0
-0.057122 0.100767 0
-0.066846 0.103431 0
-0.076726 0.104844 0
-0.086674 0.105088 0
-0.096613 0.104222 0
-0.106475 0.102289 0