# vtk DataFile Version 2.0
generated by CFD-lab course output (written by Tobias Neckel) 
ASCII

DATASET STRUCTURED_GRID
DIMENSIONS  51 51 1 
POINTS 2601 float

0.000000 0.000000 0
0.020000 0.000000 0
0.040000 0.000000 0
0.060000 0.000000 0
0.080000 0.000000 0
0.100000 0.000000 0
0.120000 0.000000 0
0.140000 0.000000 0
0.160000 0.000000 0
0.180000 0.000000 0
0.200000 0.000000 0
0.220000 0.000000 0
0.240000 0.000000 0
0.260000 0.000000 0
0.280000 0.000000 0
0.300000 0.000000 0
0.320000 0.000000 0
0.340000 0.000000 0
0.360000 0.000000 0
0.380000 0.000000 0
0.400000 0.000000 0
0.420000 0.000000 0
0.440000 0.000000 0
0.460000 0.000000 0
0.480000 0.000000 0
0.500000 0.000000 0
0.520000 0.000000 0
0.540000 0.000000 0
0.560000 0.000000 0
0.580000 0.000000 0
0.600000 0.000000 0
0.620000 0.000000 0
0.640000 0.000000 0
0.660000 0.000000 0
0.680000 0.000000 0
0.700000 0.000000 0
0.720000 0.000000 0
0.740000 0.000000 0
0.760000 0.000000 0
0.780000 0.000000 0
0.800000 0.000000 0
0.820000 0.000000 0
0.840000 0.000000 0
0.860000 0.000000 0
0.880000 0.000000 0
0.900000 0.000000 0
0.920000 0.000000 0
0.940000 0.000000 0
0.960000 0.000000 0
0.980000 0.000000 0
1.000000 0.000000 0
0.000000 0.020000 0
0.020000 0.020000 0
0.040000 0.020000 0
0.060000 0.020000 0
0.080000 0.020000 0
0.100000 0.020000 0
0.120000 0.020000 0
0.140000 0.020000 0
0.160000 0.020000 0
0.180000 0.020000 0
0.200000 0.020000 0
0.220000 0.020000 0
0.240000 0.020000 0
0.260000 0.020000 0
0.280000 0.020000 0
0.300000 0.020000 0
0.320000 0.020000 0
0.340000 0.020000 0
0.360000 0.020000 0
0.380000 0.020000 0
0.400000 0.020000 0
0.420000 0.020000 0
0.440000 0.020000 0
0.460000 0.020000 0
0.480000 0.020000 0
0.500000 0.020000 0
0.520000 0.020000 0
0.540000 0.020000 0
0.560000 0.020000 0
0.580000 0.020000 0
0.600000 0.020000 0
0.620000 0.020000 0
0.640000 0.020000 0
0.660000 0.020000 0
0.680000 0.020000 0
0.700000 0.020000 0
0.720000 0.020000 0
0.740000 0.020000 0
0.760000 0.020000 0
0.780000 0.020000 0
0.800000 0.020000 0
0.820000 0.020000 0
0.840000 0.020000 0
0.860000 0.020000 0
0.880000 0.020000 0
0.900000 0.020000 0
0.920000 0.020000 0
0.940000 0.020000 0
0.960000 0.020000 0
0.980000 0.020000 0
1.000000 0.020000 0
0.000000 0.040000 0
0.020000 0.040000 0
0.040000 0.040000 0
0.060000 0.040000 0
0.080000 0.040000 0
0.100000 0.040000 0
0.120000 0.040000 0
0.140000 0.040000 0
0.160000 0.040000 0
0.180000 0.040000 0
0.200000 0.040000 0
0.220000 0.040000 0
0.240000 0.040000 0
0.260000 0.040000 0
0.280000 0.040000 0
0.300000 0.040000 0
0.320000 0.040000 0
0.340000 0.040000 0
0.360000 0.040000 0
0.380000 0.040000 0
0.400000 0.040000 0
0.420000 0.040000 0
0.440000 0.040000 0
0.460000 0.040000 0
0.480000 0.040000 0
0.500000 0.040000 0
0.520000 0.040000 0
0.540000 0.040000 0
0.560000 0.040000 0
0.580000 0.040000 0
0.600000 0.040000 0
0.620000 0.040000 0
0.640000 0.040000 0
0.660000 0.040000 0
0.680000 0.040000 0
0.700000 0.040000 0
0.720000 0.040000 0
0.740000 0.040000 0
0.760000 0.040000 0
0.780000 0.040000 0
0.800000 0.040000 0
0.820000 0.040000 0
0.840000 0.040000 0
0.860000 0.040000 0
0.880000 0.040000 0
0.900000 0.040000 0
0.920000 0.040000 0
0.940000 0.040000 0
0.960000 0.040000 0
0.980000 0.040000 0
1.000000 0.040000 0
0.000000 0.060000 0
0.020000 0.060000 0
0.040000 0.060000 0
0.060000 0.060000 0
0.080000 0.060000 0
0.100000 0.060000 0
0.120000 0.060000 0
0.140000 0.060000 0
0.160000 0.060000 0
0.180000 0.060000 0
0.200000 0.060000 0
0.220000 0.060000 0
0.240000 0.060000 0
0.260000 0.060000 0
0.280000 0.060000 0
0.300000 0.060000 0
0.320000 0.060000 0
0.340000 0.060000 0
0.360000 0.060000 0
0.380000 0.060000 0
0.400000 0.060000 0
0.420000 0.060000 0
0.440000 0.060000 0
0.460000 0.060000 0
0.480000 0.060000 0
0.500000 0.060000 0
0.520000 0.060000 0
0.540000 0.060000 0
0.560000 0.060000 0
0.580000 0.060000 0
0.600000 0.060000 0
0.620000 0.060000 0
0.640000 0.060000 0
0.660000 0.060000 0
0.680000 0.060000 0
0.700000 0.060000 0
0.720000 0.060000 0
0.740000 0.060000 0
0.760000 0.060000 0
0.780000 0.060000 0
0.800000 0.060000 0
0.820000 0.060000 0
0.840000 0.060000 0
0.860000 0.060000 0
0.880000 0.060000 0
0.900000 0.060000 0
0.920000 0.060000 0
0.940000 0.060000 0
0.960000 0.060000 0
0.980000 0.060000 0
1.000000 0.060000 0
0.000000 0.080000 0
0.020000 0.080000 0
0.040000 0.080000 0
0.060000 0.080000 0
0.080000 0.080000 0
0.100000 0.080000 0
0.120000 0.080000 0
0.140000 0.080000 0
0.160000 0.080000 0
0.180000 0.080000 0
0.200000 0.080000 0
0.220000 0.080000 0
0.240000 0.080000 0
0.260000 0.080000 0
0.280000 0.080000 0
0.300000 0.080000 0
0.320000 0.080000 0
0.340000 0.080000 0
0.360000 0.080000 0
0.380000 0.080000 0
0.400000 0.080000 0
0.420000 0.080000 0
0.440000 0.080000 0
0.460000 0.080000 0
0.480000 0.080000 0
0.500000 0.080000 0
0.520000 0.080000 0
0.540000 0.080000 0
0.560000 0.080000 0
0.580000 0.080000 0
0.600000 0.080000 0
0.620000 0.080000 0
0.640000 0.080000 0
0.660000 0.080000 0
0.680000 0.080000 0
0.700000 0.080000 0
0.720000 0.080000 0
0.740000 0.080000 0
0.760000 0.080000 0
0.780000 0.080000 0
0.800000 0.080000 0
0.820000 0.080000 0
0.840000 0.080000 0
0.860000 0.080000 0
0.880000 0.080000 0
0.900000 0.080000 0
0.920000 0.080000 0
0.940000 0.080000 0
0.960000 0.080000 0
0.980000 0.080000 0
1.000000 0.080000 0
0.000000 0.100000 0
0.020000 0.100000 0
0.040000 0.100000 0
0.060000 0.100000 0
0.080000 0.100000 0
0.100000 0.100000 0
0.120000 0.100000 0
0.140000 0.100000 0
0.160000 0.100000 0
0.180000 0.100000 0
0.200000 0.100000 0
0.220000 0.100000 0
0.240000 0.100000 0
0.260000 0.100000 0
0.280000 0.100000 0
0.300000 0.100000 0
0.320000 0.100000 0
0.340000 0.100000 0
0.360000 0.100000 0
0.380000 0.100000 0
0.400000 0.100000 0
0.420000 0.100000 0
0.440000 0.100000 0
0.460000 0.100000 0
0.480000 0.100000 0
0.500000 0.100000 0
0.520000 0.100000 0
0.540000 0.100000 0
0.560000 0.100000 0
0.580000 0.100000 0
0.600000 0.100000 0
0.620000 0.100000 0
0.640000 0.100000 0
0.660000 0.100000 0
0.680000 0.100000 0
0.700000 0.100000 0
0.720000 0.100000 0
0.740000 0.100000 0
0.760000 0.100000 0
0.780000 0.100000 0
0.800000 0.100000 0
0.820000 0.100000 0
0.840000 0.100000 0
0.860000 0.100000 0
0.880000 0.100000 0
0.900000 0.100000 0
0.920000 0.100000 0
0.940000 0.100000 0
0.960000 0.100000 0
0.980000 0.100000 0
1.000000 0.100000 0
0.000000 0.120000 0
0.020000 0.120000 0
0.040000 0.120000 0
0.060000 0.120000 0
0.080000 0.120000 0
0.100000 0.120000 0
0.120000 0.120000 0
0.140000 0.120000 0
0.160000 0.120000 0
0.180000 0.120000 0
0.200000 0.120000 0
0.220000 0.120000 0
0.240000 0.120000 0
0.260000 0.120000 0
0.280000 0.120000 0
0.300000 0.120000 0
0.320000 0.120000 0
0.340000 0.120000 0
0.360000 0.120000 0
0.380000 0.120000 0
0.400000 0.120000 0
0.420000 0.120000 0
0.440000 0.120000 0
0.460000 0.120000 0
0.480000 0.120000 0
0.500000 0.120000 0
0.520000 0.120000 0
0.540000 0.120000 0
0.560000 0.120000 0
0.580000 0.120000 0
0.600000 0.120000 0
0.620000 0.120000 0
0.640000 0.120000 0
0.660000 0.120000 0
0.680000 0.120000 0
0.700000 0.120000 0
0.720000 0.120000 0
0.740000 0.120000 0
0.760000 0.120000 0
0.780000 0.120000 0
0.800000 0.120000 0
0.820000 0.120000 0
0.840000 0.120000 0
0.860000 0.120000 0
0.880000 0.120000 0
0.900000 0.120000 0
0.920000 0.120000 0
0.940000 0.120000 0
0.960000 0.120000 0
0.980000 0.120000 0
1.000000 0.120000 0
0.000000 0.140000 0
0.020000 0.140000 0
0.040000 0.140000 0
0.060000 0.140000 0
0.080000 0.140000 0
0.100000 0.140000 0
0.120000 0.140000 0
0.140000 0.140000 0
0.160000 0.140000 0
0.180000 0.140000 0
0.200000 0.140000 0
0.220000 0.140000 0
0.240000 0.140000 0
0.260000 0.140000 0
0.280000 0.140000 0
0.300000 0.140000 0
0.320000 0.140000 0
0.340000 0.140000 0
0.360000 0.140000 0
0.380000 0.140000 0
0.400000 0.140000 0
0.420000 0.140000 0
0.440000 0.140000 0
0.460000 0.140000 0
0.480000 0.140000 0
0.500000 0.140000 0
0.520000 0.140000 0
0.540000 0.140000 0
0.560000 0.140000 0
0.580000 0.140000 0
0.600000 0.140000 0
0.620000 0.140000 0
0.640000 0.140000 0
0.660000 0.140000 0
0.680000 0.140000 0
0.700000 0.140000 0
0.720000 0.140000 0
0.740000 0.140000 0
0.760000 0.140000 0
0.780000 0.140000 0
0.800000 0.140000 0
0.820000 0.140000 0
0.840000 0.140000 0
0.860000 0.140000 0
0.880000 0.140000 0
0.900000 0.140000 0
0.920000 0.140000 0
0.940000 0.140000 0
0.960000 0.140000 0
0.980000 0.140000 0
1.000000 0.140000 0
0.000000 0.160000 0
0.020000 0.160000 0
0.040000 0.160000 0
0.060000 0.160000 0
0.080000 0.160000 0
0.100000 0.160000 0
0.120000 0.160000 0
0.140000 0.160000 0
0.160000 0.160000 0
0.180000 0.160000 0
0.200000 0.160000 0
0.220000 0.160000 0
0.240000 0.160000 0
0.260000 0.160000 0
0.280000 0.160000 0
0.300000 0.160000 0
0.320000 0.160000 0
0.340000 0.160000 0
0.360000 0.160000 0
0.380000 0.160000 0
0.400000 0.160000 0
0.420000 0.160000 0
0.440000 0.160000 0
0.460000 0.160000 0
0.480000 0.160000 0
0.500000 0.160000 0
0.520000 0.160000 0
0.540000 0.160000 0
0.560000 0.160000 0
0.580000 0.160000 0
0.600000 0.160000 0
0.620000 0.160000 0
0.640000 0.160000 0
0.660000 0.160000 0
0.680000 0.160000 0
0.700000 0.160000 0
0.720000 0.160000 0
0.740000 0.160000 0
0.760000 0.160000 0
0.780000 0.160000 0
0.800000 0.160000 0
0.820000 0.160000 0
0.840000 0.160000 0
0.860000 0.160000 0
0.880000 0.160000 0
0.900000 0.160000 0
0.920000 0.160000 0
0.940000 0.160000 0
0.960000 0.160000 0
0.980000 0.160000 0
1.000000 0.160000 0
0.000000 0.180000 0
0.020000 0.180000 0
0.040000 0.180000 0
0.060000 0.180000 0
0.080000 0.180000 0
0.100000 0.180000 0
0.120000 0.180000 0
0.140000 0.180000 0
0.160000 0.180000 0
0.180000 0.180000 0
0.200000 0.180000 0
0.220000 0.180000 0
0.240000 0.180000 0
0.260000 0.180000 0
0.280000 0.180000 0
0.300000 0.180000 0
0.320000 0.180000 0
0.340000 0.180000 0
0.360000 0.180000 0
0.380000 0.180000 0
0.400000 0.180000 0
0.420000 0.180000 0
0.440000 0.180000 0
0.460000 0.180000 0
0.480000 0.180000 0
0.500000 0.180000 0
0.520000 0.180000 0
0.540000 0.180000 0
0.560000 0.180000 0
0.580000 0.180000 0
0.600000 0.180000 0
0.620000 0.180000 0
[...]
POINT_DATA 2601 

VECTORS velocity float
0.000000 0.000000 0
0.000001 0.000000 0
0.000000 0.000000 0
-0.000000 0.000000 0
-0.000001 0.000000 0
-0.000000 0.000000 0
-0.000000 0.000000 0
0.000000 0.000000 0
0.000000 0.000000 0
0.000000 0.000000 0
0.000000 0.000000 0
0.000000 0.000000 0
-0.000000 0.000000 0
-0.000000 0.000000 0
-0.000000 0.000000 0
-0.000000 0.000000 0
-0.000000 0.000000 0
0.000000 0.000000 0
0.000000 0.000000 0
0.000000 0.000000 0
0.000000 0.000000 0
-0.000000 0.000000 0
-0.000000 0.000000 0
-0.000000 0.000000 0
-0.000000 0.000000 0
-0.000000 0.000000 0
-0.000000 0.000000 0
-0.000000 0.000000 0
-0.000000 0.000000 0
-0.000000 0.000000 0
-0.000000 0.000000 0
-0.000000 0.000000 0
-0.000000 0.000000 0
-0.000000 0.000000 0
0.000000 0.000000 0
0.000000 0.000000 0
0.000000 0.000000 0
0.000000 0.000000 0
-0.000000 0.000000 0
-0.000000 0.000000 0
-0.000000 0.000000 0
-0.000000 0.000000 0
-0.000000 0.000000 0
-0.000000 0.000000 0
0.000000 0.000000 0
0.000000 0.000000 0
0.000000 0.000000 0
0.000000 0.000000 0
0.000000 0.000000 0
0.000000 0.000000 0
0.000000 0.000000 0
0.000000 0.000001 0
0.000061 -0.000059 0
0.000082 -0.000023 0
-0.000014 0.000055 0
-0.000256 0.000143 0
-0.000645 0.000227 0
-0.001171 0.000301 0
-0.001815 0.000363 0
-0.002557 0.000412 0
-0.003376 0.000449 0
-0.004253 0.000476 0
-0.005171 0.000493 0
-0.006112 0.000502 0
-0.007063 0.000504 0
-0.008009 0.000498 0
-0.008936 0.000486 0
-0.009833 0.000467 0
-0.010687 0.000442 0
-0.011484 0.000410 0
-0.012214 0.000372 0
-0.012863 0.000326 0
-0.013419 0.000274 0
-0.013870 0.000216 0
-0.014206 0.000152 0
-0.014416 0.000082 0
-0.014492 0.000009 0
-0.014428 -0.000068 0
-0.014220 -0.000147 0
-0.013868 -0.000225 0
-0.013374 -0.000301 0
-0.012743 -0.000373 0
-0.011987 -0.000439 0
-0.011117 -0.000497 0
-0.010152 -0.000544 0
-0.009111 -0.000579 0
-0.008018 -0.000601 0
-0.006898 -0.000607 0
-0.005779 -0.000599 0
-0.004688 -0.000574 0
-0.003652 -0.000535 0
-0.002697 -0.000482 0
-0.001847 -0.000416 0
-0.001122 -0.000339 0
-0.000538 -0.000255 0
-0.000105 -0.000167 0
0.000174 -0.000079 0
0.000305 0.000002 0
0.000306 0.000067 0
0.000213 0.000100 0
0.000082 0.000082 0
0.000000 0.000000 0
0.000000 0.000001 0
0.000025 -0.000081 0
-0.000075 0.000074 0
-0.000386 0.000336 0
-0.000945 0.000630 0
-0.001754 0.000915 0
-0.002797 0.001170 0
-0.004046 0.001386 0
-0.005468 0.001561 0
-0.007027 0.001697 0
-0.008692 0.001795 0
-0.010428 0.001859 0
-0.012208 0.001892 0
-0.014002 0.001896 0
-0.015785 0.001873 0
-0.017531 0.001824 0
-0.019216 0.001750 0
-0.020816 0.001652 0
-0.022308 0.001527 0
-0.023667 0.001379 0
-0.024872 0.001205 0
-0.025899 0.001007 0
-0.026728 0.000787 0
-0.027338 0.000546 0
-0.027713 0.000286 0
-0.027839 0.000012 0
-0.027705 -0.000272 0
-0.027305 -0.000560 0
-0.026639 -0.000847 0
-0.025713 -0.001125 0
-0.024538 -0.001387 0
-0.023132 -0.001626 0
-0.021521 -0.001835 0
-0.019735 -0.002006 0
-0.017810 -0.002134 0
-0.015790 -0.002212 0
-0.013718 -0.002239 0
-0.011644 -0.002211 0
-0.009615 -0.002127 0
-0.007681 -0.001991 0
-0.005887 -0.001805 0
-0.004276 -0.001575 0
-0.002882 -0.001309 0
-0.001734 -0.001017 0
-0.000848 -0.000712 0
-0.000229 -0.000410 0
0.000133 -0.000133 0
0.000269 0.000092 0
0.000232 0.000224 0
0.000103 0.000213 0
0.000000 0.000000 0
0.000000 -0.000000 0
-0.000057 0.000015 0
-0.000350 0.000386 0
-0.000949 0.000924 0
-0.001879 0.001511 0
-0.003139 0.002081 0
-0.004705 0.002594 0
-0.006540 0.003034 0
-0.008604 0.003393 0
-0.010852 0.003673 0
-0.013238 0.003877 0
-0.015721 0.004009 0
-0.018259 0.004076 0
-0.020813 0.004081 0
-0.023347 0.004027 0
-0.025824 0.003917 0
-0.028210 0.003753 0
-0.030472 0.003534 0
-0.032575 0.003261 0
-0.034487 0.002936 0
-0.036176 0.002558 0
-0.037611 0.002130 0
-0.038763 0.001655 0
-0.039607 0.001137 0
-0.040118 0.000583 0
-0.040279 -0.000000 0
-0.040076 -0.000603 0
-0.039504 -0.001212 0
-0.038561 -0.001817 0
-0.037258 -0.002403 0
-0.035610 -0.002954 0
-0.033643 -0.003456 0
-0.031391 -0.003894 0
-0.028896 -0.004254 0
-0.026208 -0.004524 0
-0.023384 -0.004693 0
-0.020483 -0.004754 0
-0.017572 -0.004702 0
-0.014716 -0.004537 0
-0.011980 -0.004263 0
-0.009426 -0.003887 0
-0.007110 -0.003421 0
-0.005080 -0.002881 0
-0.003374 -0.002290 0
-0.002014 -0.001672 0
-0.001007 -0.001060 0
-0.000343 -0.000496 0
0.000014 -0.000032 0
0.000123 0.000267 0
0.000076 0.000314 0
0.000000 0.000000 0
0.000000 -0.000000 0
-0.000154 0.000268 0
-0.000677 0.000965 0
-0.001604 0.001866 0
-0.002942 0.002822 0
-0.004675 0.003741 0
-0.006770 0.004572 0
-0.009184 0.005286 0
-0.011867 0.005872 0
-0.014766 0.006330 0
-0.017828 0.006664 0
-0.021002 0.006879 0
-0.024237 0.006984 0
-0.027486 0.006984 0
-0.030703 0.006884 0
-0.033843 0.006688 0
-0.036863 0.006398 0
-0.039719 0.006016 0
-0.042371 0.005543 0
-0.044778 0.004980 0
-0.046899 0.004329 0
-0.048697 0.003595 0
-0.050137 0.002782 0
-0.051187 0.001900 0
-0.051820 0.000958 0
-0.052014 -0.000030 0
-0.051753 -0.001047 0
-0.051031 -0.002075 0
-0.049850 -0.003092 0
-0.048218 -0.004076 0
-0.046159 -0.005002 0
-0.043702 -0.005845 0
-0.040890 -0.006582 0
-0.037773 -0.007189 0
-0.034412 -0.007646 0
-0.030874 -0.007937 0
-0.027234 -0.008050 0
-0.023569 -0.007978 0
-0.019960 -0.007720 0
-0.016485 -0.007281 0
-0.013219 -0.006675 0
-0.010231 -0.005921 0
-0.007580 -0.005045 0
-0.005311 -0.004084 0
-0.003455 -0.003078 0
-0.002024 -0.002080 0
-0.001008 -0.001154 0
-0.000373 -0.000375 0
-0.000058 0.000161 0
0.000026 0.000336 0
0.000000 0.000000 0
0.000000 -0.000001 0
-0.000255 0.000691 0
-0.001021 0.001837 0
-0.002296 0.003189 0
-0.004060 0.004583 0
-0.006280 0.005910 0
-0.008909 0.007104 0
-0.011895 0.008131 0
-0.015181 0.008975 0
-0.018705 0.009634 0
-0.022408 0.010112 0
-0.026231 0.010418 0
-0.030117 0.010561 0
-0.034011 0.010547 0
-0.037859 0.010384 0
-0.041608 0.010077 0
-0.045210 0.009629 0
-0.048612 0.009042 0
-0.051766 0.008320 0
-0.054625 0.007463 0
-0.057143 0.006478 0
-0.059275 0.005368 0
-0.060982 0.004145 0
-0.062228 0.002820 0
-0.062980 0.001409 0
-0.063214 -0.000067 0
-0.062914 -0.001585 0
-0.062071 -0.003116 0
-0.060687 -0.004630 0
-0.058775 -0.006093 0
-0.056358 -0.007470 0
-0.053472 -0.008725 0
-0.050165 -0.009824 0
-0.046493 -0.010733 0
-0.042526 -0.011423 0
-0.038340 -0.011871 0
-0.034021 -0.012059 0
-0.029658 -0.011976 0
-0.025342 -0.011622 0
-0.021165 -0.011004 0
-0.017212 -0.010140 0
-0.013566 -0.009060 0
-0.010294 -0.007801 0
-0.007452 -0.006414 0
-0.005078 -0.004958 0
-0.003191 -0.003507 0
-0.001786 -0.002148 0
-0.000833 -0.000982 0
-0.000277 -0.000132 0
-0.000036 0.000256 0
0.000000 0.000000 0
0.000000 -0.000000 0
-0.000353 0.001289 0
-0.001366 0.003008 0
-0.002994 0.004906 0
-0.005190 0.006805 0
-0.007900 0.008590 0
-0.011063 0.010188 0
-0.014614 0.011557 0
-0.018488 0.012681 0
-0.022616 0.013557 0
-0.026933 0.014190 0
-0.031374 0.014589 0
-0.035874 0.014764 0
-0.040374 0.014726 0
-0.044813 0.014482 0
-0.049133 0.014039 0
-0.053277 0.013401 0
-0.057189 0.012573 0
-0.060814 0.011556 0
-0.064098 0.010356 0
-0.066991 0.008979 0
-0.069444 0.007434 0
-0.071410 0.005734 0
-0.072851 0.003897 0
-0.073732 0.001945 0
-0.074024 -0.000095 0
-0.073709 -0.002190 0
-0.072778 -0.004301 0
-0.071232 -0.006388 0
-0.069084 -0.008405 0
-0.066360 -0.010305 0
-0.063097 -0.012039 0
-0.059347 -0.013562 0
-0.055174 -0.014828 0
-0.050651 -0.015799 0
-0.045865 -0.016442 0
-0.040908 -0.016732 0
-0.035879 -0.016657 0
-0.030882 -0.016213 0
-0.026019 -0.015411 0
-0.021387 -0.014274 0
-0.017079 -0.012839 0
-0.013176 -0.011159 0
-0.009742 -0.009299 0
-0.006826 -0.007339 0
-0.004455 -0.005373 0
-0.002631 -0.003512 0
-0.001333 -0.001884 0
-0.000514 -0.000636 0
-0.000101 0.000059 0
0.000000 0.000000 0
0.000000 -0.000000 0
-0.000448 0.002057 0
-0.001702 0.004478 0
-0.003680 0.007015 0
-0.006305 0.009489 0
-0.009502 0.011782 0
-0.013192 0.013818 0
-0.017299 0.015555 0
-0.021747 0.016977 0
-0.026461 0.018079 0
-0.031369 0.018870 0
-0.036401 0.019360 0
-0.041488 0.019561 0
-0.046563 0.019486 0
-0.051563 0.019143 0
-0.056423 0.018541 0
-0.061082 0.017685 0
-0.065479 0.016579 0
-0.069555 0.015229 0
-0.073250 0.013641 0
-0.076509 0.011823 0
-0.079278 0.009788 0
-0.081510 0.007553 0
-0.083158 0.005141 0
-0.084186 0.002582 0
-0.084562 -0.000089 0
-0.084265 -0.002830 0
-0.083284 -0.005593 0
-0.081618 -0.008324 0
-0.079280 -0.010965 0
-0.076295 -0.013457 0
-0.072704 -0.015738 0
-0.068558 -0.017747 0
-0.063926 -0.019429 0
-0.058886 -0.020732 0
-0.053531 -0.021614 0
-0.047962 -0.022044 0
-0.042286 -0.022001 0
-0.036616 -0.021482 0
-0.031067 -0.020499 0
-0.025748 -0.019080 0
-0.020765 -0.017271 0
-0.016209 -0.015138 0
-0.012158 -0.012763 0
-0.008672 -0.010246 0
-0.005788 -0.007703 0
-0.003520 -0.005270 0
-0.001856 -0.003099 0
-0.000758 -0.001364 0
-0.000166 -0.000258 0
0.000000 0.000000 0
0.000000 0.000000 0
-0.000539 0.002991 0
-0.002025 0.006240 0
-0.004344 0.009510 0
-0.007390 0.012627 0
-0.011063 0.015476 0
-0.015269 0.017984 0
-0.019918 0.020112 0
-0.024925 0.021844 0
-0.030207 0.023180 0
-0.035686 0.024130 0
-0.041287 0.024707 0
-0.046936 0.024926 0
-0.052563 0.024801 0
-0.058100 0.024342 0
-0.063480 0.023559 0
-0.068635 0.022458 0
-0.073502 0.021045 0
-0.078017 0.019326 0
-0.082117 0.017310 0
-0.085743 0.015008 0
-0.088838 0.012435 0
-0.091348 0.009614 0
-0.093225 0.006573 0
-0.094427 0.003348 0
-0.094921 -0.000016 0
-0.094681 -0.003468 0
-0.093693 -0.006949 0
-0.091954 -0.010392 0
-0.089474 -0.013727 0
-0.086277 -0.016881 0
-0.082402 -0.019776 0
-0.077904 -0.022339 0
-0.072850 -0.024500 0
-0.067325 -0.026193 0
-0.061424 -0.027367 0
-0.055256 -0.027978 0
-0.048938 -0.028002 0
-0.042593 -0.027432 0
-0.036347 -0.026279 0
-0.030322 -0.024576 0
-0.024637 -0.022379 0
-0.019398 -0.019766 0
-0.014698 -0.016836 0
-0.010610 -0.013708 0
-0.007184 -0.010525 0
-0.004445 -0.007444 0
-0.002395 -0.004645 0
-0.001007 -0.002325 0
-0.000232 -0.000699 0
0.000000 0.000000 0
0.000000 0.000000 0
-0.000625 0.004083 0
-0.002334 0.008284 0
-0.004982 0.012379 0
-0.008434 0.016207 0
-0.012569 0.019660 0
-0.017275 0.022673 0
-0.022450 0.025211 0
-0.027998 0.027266 0
-0.033829 0.028841 0
-0.039859 0.029950 0
-0.046008 0.030609 0
-0.052199 0.030838 0
-0.058358 0.030650 0
-0.064414 0.030059 0
-0.070296 0.029076 0
-0.075935 0.027707 0
-0.081264 0.025961 0
-0.086216 0.023844 0
-0.090724 0.021367 0
-0.094726 0.018543 0
-0.098161 0.015392 0
-0.100971 0.011940 0
-0.103106 0.008221 0
-0.104519 0.004278 0
-0.105171 0.000165 0
-0.105033 -0.004058 0
-0.104087 -0.008320 0
-0.102326 -0.012543 0
-0.099755 -0.016642 0
-0.096396 -0.020528 0
-0.092285 -0.024111 0
-0.087476 -0.027299 0
-0.082036 -0.030008 0
-0.076052 -0.032158 0
-0.069624 -0.033683 0
-0.062866 -0.034530 0
-0.055905 -0.034664 0
-0.048872 -0.034074 0
-0.041907 -0.032770 0
-0.035148 -0.030789 0
-0.028727 -0.028195 0
-0.022768 -0.025077 0
-0.017380 -0.021552 0
-0.012651 -0.017760 0
-0.008647 -0.013867 0
-0.005410 -0.010058 0
-0.002953 -0.006538 0
-0.001261 -0.003528 0
-0.000297 -0.001265 0
0.000000 0.000000 0
0.000000 0.000000 0
-0.000706 0.005325 0
-0.002628 0.010597 0
-0.005588 0.015609 0
-0.009429 0.020213 0
-0.014007 0.024317 0
-0.019195 0.027865 0
-0.024876 0.030835 0
-0.030944 0.033223 0
-0.037304 0.035041 0
-0.043864 0.036309 0
-0.050540 0.037047 0
-0.057253 0.037276 0
-0.063927 0.037016 0
-0.070486 0.036280 0
-0.076859 0.035080 0
-0.082975 0.033426 0
-0.088762 0.031325 0
-0.094153 0.028786 0
-0.099077 0.025821 0
-0.103470 0.022445 0
-0.107267 0.018681 0
-0.110407 0.014559 0
-0.112834 0.010120 0
-0.114499 0.005413 0
-0.115356 0.000499 0
-0.115372 -0.004552 0
-0.114523 -0.009656 0
-0.112795 -0.014724 0
-0.110190 -0.019657 0
-0.106722 -0.024350 0
-0.102426 -0.028696 0
-0.097349 -0.032589 0
-0.091560 -0.035923 0
-0.085144 -0.038605 0
-0.078205 -0.040552 0
-0.070863 -0.041698 0
-0.063252 -0.041997 0
-0.055516 -0.041429 0
-0.047806 -0.040003 0
-0.040277 -0.037756 0
-0.033079 -0.034759 0
-0.026354 -0.031114 0
-0.020231 -0.026953 0
-0.014816 -0.022441 0
-0.010196 -0.017765 0
-0.006426 -0.013139 0
-0.003536 -0.008795 0
-0.001525 -0.004981 0
-0.000363 -0.001960 0
0.000000 0.000000 0
0.000000 0.000000 0
-0.000782 0.006711 0
-0.002904 0.013166 0
-0.006161 0.019180 0
-0.010370 0.024626 0
-0.015370 0.029426 0
-0.021015 0.033541 0
-0.027179 0.036961 0
-0.033745 0.039694 0
-0.040610 0.041760 0
-0.047677 0.043186 0
-0.054861 0.043999 0
-0.062077 0.044224 0
-0.069248 0.043883 0
-0.076297 0.042992 0
-0.083150 0.041564 0
-0.089736 0.039610 0
-0.095982 0.037139 0
-0.101816 0.034159 0
-0.107169 0.030685 0
-0.111971 0.026733 0
-0.116155 0.022329 0
-0.119658 0.017507 0
-0.122418 0.012312 0
-0.124380 0.006800 0
-0.125495 0.001039 0
-0.125722 -0.004892 0
-0.125029 -0.010898 0
-0.123396 -0.016877 0
-0.120817 -0.022715 0
-0.117301 -0.028292 0
-0.112873 -0.033484 0
-0.107578 -0.038165 0
-0.101480 -0.042213 0
-0.094663 -0.045512 0
-0.087233 -0.047964 0
-0.079313 -0.049483 0
-0.071046 -0.050012 0
-0.062587 -0.049520 0
-0.054102 -0.048009 0
-0.045764 -0.045516 0
-0.037741 -0.042117 0
-0.030199 -0.037925 0
-0.023287 -0.033090 0
-0.017136 -0.027795 0
-0.011850 -0.022258 0
-0.007508 -0.016718 0
-0.004154 -0.011439 0
-0.001802 -0.006700 0
-0.000433 -0.002790 0
0.000000 0.000000 0
0.000000 0.000000 0
-0.000854 0.008230 0
-0.003163 0.015976 0
-0.006696 0.023074 0
-0.011251 0.029422 0
-0.016647 0.034963 0
-0.022725 0.039675 0
-0.029345 0.043565 0
-0.036382 0.046654 0
-0.043726 0.048974 0
-0.051277 0.050560 0
-0.058944 0.051446 0
-0.066643 0.051663 0
-0.074293 0.051235 0
-0.081817 0.050183 0
-0.089141 0.048520 0
-0.096191 0.046257 0
-0.102895 0.043405 0
-0.109180 0.039973 0
-0.114974 0.035976 0
-0.120206 0.031432 0
-0.124806 0.026368 0
-0.128707 0.020822 0
-0.131842 0.014842 0
-0.134151 0.008490 0
-0.135579 0.001840 0
-0.136077 -0.005018 0
-0.135605 -0.011982 0
-0.134134 -0.018936 0
-0.131649 -0.025752 0
-0.128150 -0.032295 0
-0.123652 -0.038420 0
-0.118195 -0.043982 0
-0.111835 -0.048838 0
-0.104654 -0.052852 0
-0.096757 -0.055902 0
-0.088271 -0.057885 0
-0.079345 -0.058723 0
-0.070147 -0.058373 0
-0.060857 -0.056826 0
-0.051667 -0.054117 0
-0.042769 -0.050323 0
-0.034352 -0.045568 0
-0.026592 -0.040017 0
-0.019644 -0.033878 0
-0.013639 -0.027392 0
-0.008676 -0.020835 0
-0.004820 -0.014501 0
-0.002100 -0.008703 0
-0.000507 -0.003762 0
0.000000 0.000000 0
0.000000 -0.000000 0
-0.000920 0.009873 0
-0.003401 0.019008 0
-0.007192 0.027269 0
-0.012067 0.034577 0
-0.017832 0.040900 0
-0.024312 0.046239 0
-0.031358 0.050618 0
-0.038836 0.054075 0
-0.046631 0.056655 0
-0.054638 0.058405 0
-0.062764 0.059365 0
-0.070922 0.059573 0
-0.079031 0.059057 0
-0.087014 0.057840 0
-0.094796 0.055939 0
-0.102305 0.053364 0
-0.109465 0.050127 0
-0.116206 0.046238 0
-0.122454 0.041711 0
-0.128135 0.036565 0
-0.133178 0.030830 0
-0.137511 0.024543 0
-0.141065 0.017757 0
-0.143772 0.010537 0
-0.145570 0.002964 0
-0.146402 -0.004866 0
-0.146219 -0.012840 0
-0.144983 -0.020832 0
-0.142665 -0.028700 0
-0.139255 -0.036289 0
-0.134758 -0.043439 0
-0.129202 -0.049983 0
-0.122638 -0.055753 0
-0.115139 -0.060590 0
-0.106809 -0.064347 0
-0.097777 -0.066895 0
-0.088196 -0.068137 0
-0.078246 -0.068008 0
-0.068124 -0.066489 0
-0.058042 -0.063604 0
-0.048216 -0.059432 0
-0.038863 -0.054103 0
-0.030188 -0.047798 0
-0.022377 -0.040748 0
-0.015590 -0.033225 0
-0.009951 -0.025536 0
-0.005547 -0.018015 0
-0.002425 -0.011014 0
-0.000588 -0.004890 0
0.000000 0.000000 0
0.000000 -0.000000 0
-0.000980 0.011631 0
-0.003619 0.022247 0
-0.007643 0.031741 0
-0.012812 0.040063 0
-0.018914 0.047208 0
-0.025765 0.053201 0
-0.033203 0.058088 0
-0.041090 0.061927 0
-0.049302 0.064775 0
-0.057734 0.066693 0
-0.066290 0.067730 0
-0.074880 0.067930 0
-0.083425 0.067328 0
-0.091848 0.065949 0
-0.100073 0.063810 0
-0.108029 0.060926 0
-0.115643 0.057306 0
-0.122841 0.052961 0
-0.129551 0.047905 0
-0.135698 0.042156 0
-0.141208 0.035744 0
-0.146007 0.028709 0
-0.150020 0.021103 0
-0.153174 0.012995 0
-0.155399 0.004471 0
-0.156630 -0.004368 0
-0.156808 -0.013402 0
-0.155880 -0.022490 0
-0.153808 -0.031480 0
-0.150568 -0.040201 0
-0.146151 -0.048472 0
-0.140572 -0.056102 0
-0.133871 -0.062901 0
-0.126114 -0.068681 0
-0.117397 -0.073265 0
-0.107849 -0.076498 0
-0.097629 -0.078253 0
-0.086925 -0.078444 0
-0.075950 -0.077030 0
-0.064938 -0.074025 0
-0.054133 -0.069502 0
-0.043781 -0.063596 0
-0.034122 -0.056503 0
-0.025376 -0.048476 0
-0.017735 -0.039819 0
-0.011355 -0.030877 0
-0.006349 -0.022027 0
-0.002784 -0.013662 0
-0.000677 -0.006187 0
0.000000 -0.000000 0
0.000000 -0.000000 0
-0.001034 0.013491 0
-0.003813 0.025671 0
-0.008047 0.036463 0
-0.013480 0.045849 0
-0.019886 0.053853 0
-0.027071 0.060527 0
-0.034865 0.065942 0
-0.043123 0.070174 0
-0.051718 0.073300 0
-0.060539 0.075392 0
-0.069491 0.076511 0
-0.078483 0.076708 0
-0.087436 0.076025 0
-0.096274 0.074488 0
-0.104922 0.072120 0
-0.113310 0.068934 0
-0.121366 0.064939 0
-0.129019 0.060146 0
-0.136194 0.054568 0
-0.142818 0.048223 0
-0.148814 0.041138 0
-0.154106 0.033354 0
-0.158614 0.024924 0
-0.162261 0.015917 0
-0.164968 0.006421 0
-0.166661 -0.003458 0
-0.167269 -0.013591 0
-0.166729 -0.023831 0
-0.164987 -0.034012 0
-0.162003 -0.043947 0
-0.157754 -0.053435 0
-0.152239 -0.062263 0
-0.145483 -0.070212 0
-0.137540 -0.077064 0
-0.128498 -0.082611 0
-0.118482 -0.086663 0
-0.107652 -0.089061 0
-0.096204 -0.089687 0
-0.084367 -0.088476 0
-0.072395 -0.085422 0
-0.060563 -0.080589 0
-0.049151 -0.074114 0
-0.038435 -0.066204 0
-0.028675 -0.057135 0
-0.020103 -0.047246 0
-0.012911 -0.036922 0
-0.007241 -0.026586 0
-0.003185 -0.016686 0
-0.000778 -0.007674 0
0.000000 -0.000000 0
0.000000 -0.000000 0
-0.001081 0.015443 0
-0.003982 0.029260 0
-0.008400 0.041408 0
-0.014064 0.051902 0
-0.020739 0.060799 0
-0.028219 0.068180 0
-0.036328 0.074140 0
-0.044916 0.078779 0
-0.053853 0.082192 0
-0.063025 0.084466 0
-0.072334 0.085673 0
-0.081693 0.085876 0
-0.091020 0.085118 0
-0.100242 0.083435 0
-0.109287 0.080847 0
-0.118084 0.077370 0
-0.126566 0.073015 0
-0.134661 0.067789 0
-0.142297 0.061704 0
-0.149400 0.054776 0
-0.155894 0.047032 0
-0.161698 0.038509 0
-0.166730 0.029258 0
-0.170908 0.019349 0
-0.174146 0.008871 0
-0.176360 -0.002067 0
-0.177469 -0.013333 0
-0.177394 -0.024773 0
-0.176068 -0.036207 0
-0.173433 -0.047434 0
-0.169448 -0.058236 0
-0.164095 -0.068374 0
-0.157380 -0.077600 0
-0.149341 -0.085665 0
-0.140055 -0.092322 0
-0.129637 -0.097344 0
-0.118246 -0.100532 0
-0.106082 -0.101730 0
-0.093387 -0.100839 0
-0.080439 -0.097829 0
-0.067541 -0.092747 0
-0.055010 -0.085724 0
-0.043166 -0.076978 0
-0.032312 -0.066807 0
-0.022726 -0.055584 0
-0.014640 -0.043740 0
-0.008236 -0.031753 0
-0.003634 -0.020125 0
-0.000891 -0.009372 0
0.000000 -0.000000 0
0.000000 -0.000000 0
-0.001120 0.017473 0
-0.004125 0.032991 0
-0.008699 0.046545 0
-0.014560 0.058187 0
-0.021463 0.068007 0
-0.029196 0.076117 0
-0.037578 0.082640 0
-0.046451 0.087699 0
-0.055684 0.091409 0
-0.065163 0.093873 0
-0.074787 0.095178 0
-0.084469 0.095394 0
-0.094131 0.094574 0
-0.103699 0.092755 0
-0.113105 0.089963 0
-0.122283 0.086213 0
-0.131163 0.081515 0
-0.139680 0.075877 0
-0.147762 0.069307 0
-0.155336 0.061819 0
-0.162326 0.053436 0
-0.168651 0.044191 0
-0.174227 0.034135 0
-0.178965 0.023333 0
-0.182774 0.011873 0
-0.185561 -0.000135 0
-0.187234 -0.012557 0
-0.187701 -0.025232 0
-0.186877 -0.037973 0
-0.184687 -0.050566 0
-0.181072 -0.062772 0
-0.175989 -0.074331 0
-0.169426 -0.084965 0
-0.161400 -0.094389 0
-0.151970 -0.102315 0
-0.141239 -0.108473 0
-0.129357 -0.112617 0
-0.116527 -0.114546 0
-0.103001 -0.114118 0
-0.089077 -0.111268 0
-0.075087 -0.106018 0
-0.061389 -0.098489 0
-0.048347 -0.088902 0
-0.036318 -0.077575 0
-0.025630 -0.064918 0
-0.016565 -0.051412 0
-0.009349 -0.037592 0
-0.004139 -0.024030 0
-0.001019 -0.011307 0
0.000000 -0.000000 0
0.000000 0.000000 0
-0.001151 0.019568 0
-0.004240 0.036839 0
-0.008939 0.051843 0
-0.014960 0.064666 0
-0.022051 0.075435 0
-0.029993 0.084294 0
-0.038599 0.091395 0
-0.047710 0.096886 0
-0.057190 0.100903 0
-0.066925 0.103568 0
-0.076814 0.104980 0
-0.086772 0.105220 0
-0.096721 0.104349 0
-0.106590 0.102410 0
-0.116315 0.099430 0