# vtk DataFile Version 2.0
generated by CFD-lab course output (written by Tobias Neckel) 
ASCII

DATASET STRUCTURED_GRID
DIMENSIONS  51 51 1 
POINTS 2601 float

0.000000 0.000000 0
0.020000 0.000000 0
0.040000 0.000000 0
0.060000 0.000000 0
0.080000 0.000000 0
0.100000 0.000000 0
0.120000 0.000000 0
0.140000 0.000000 0
0.160000 0.000000 0
0.180000 0.000000 0
0.200000 0.000000 0
0.220000 0.000000 0
0.240000 0.000000 0
0.260000 0.000000 0
0.280000 0.000000 0
0.300000 0.000000 0
0.320000 0.000000 0
0.340000 0.000000 0
0.360000 0.000000 0
0.380000 0.000000 0
0.400000 0.000000 0
0.420000 0.000000 0
0.440000 0.000000 0
0.460000 0.000000 0
0.480000 0.000000 0
0.500000 0.000000 0
0.520000 0.000000 0
0.540000 0.000000 0
0.560000 0.000000 0
0.580000 0.000000 0
0.600000 0.000000 0
0.620000 0.000000 0
0.640000 0.000000 0
0.660000 0.000000 0
0.680000 0.000000 0
0.700000 0.000000 0
0.720000 0.000000 0
0.740000 0.000000 0
0.760000 0.000000 0
0.780000 0.000000 0
0.800000 0.000000 0
0.820000 0.000000 0
0.840000 0.000000 0
0.860000 0.000000 0
0.880000 0.000000 0
0.900000 0.000000 0
0.920000 0.000000 0
0.940000 0.000000 0
0.960000 0.000000 0
0.980000 0.000000 0
1.000000 0.000000 0
0.000000 0.020000 0
0.020000 0.020000 0
0.040000 0.020000 0
0.060000 0.020000 0
0.080000 0.020000 0
0.100000 0.020000 0
0.120000 0.020000 0
0.140000 0.020000 0
0.160000 0.020000 0
0.180000 0.020000 0
0.200000 0.020000 0
0.220000 0.020000 0
0.240000 0.020000 0
0.260000 0.020000 0
0.280000 0.020000 0
0.300000 0.020000 0
0.320000 0.020000 0
0.340000 0.020000 0
0.360000 0.020000 0
0.380000 0.020000 0
0.400000 0.020000 0
0.420000 0.020000 0
0.440000 0.020000 0
0.460000 0.020000 0
0.480000 0.020000 0
0.500000 0.020000 0
0.520000 0.020000 0
0.540000 0.020000 0
0.560000 0.020000 0
0.580000 0.020000 0
0.600000 0.020000 0
0.620000 0.020000 0
0.640000 0.020000 0
0.660000 0.020000 0
0.680000 0.020000 0
0.700000 0.020000 0
0.720000 0.020000 0
0.740000 0.020000 0
0.760000 0.020000 0
0.780000 0.020000 0
0.800000 0.020000 0
0.820000 0.020000 0
0.840000 0.020000 0
0.860000 0.020000 0
0.880000 0.020000 0
0.900000 0.020000 0
0.920000 0.020000 0
0.940000 0.020000 0
0.960000 0.020000 0
0.980000 0.020000 0
1.000000 0.020000 0
0.000000 0.040000 0
0.020000 0.040000 0
0.040000 0.040000 0
0.060000 0.040000 0
0.080000 0.040000 0
0.100000 0.040000 0
0.120000 0.040000 0
0.140000 0.040000 0
0.160000 0.040000 0
0.180000 0.040000 0
0.200000 0.040000 0
0.220000 0.040000 0
0.240000 0.040000 0
0.260000 0.040000 0
0.280000 0.040000 0
0.300000 0.040000 0
0.320000 0.040000 0
0.340000 0.040000 0
0.360000 0.040000 0
0.380000 0.040000 0
0.400000 0.040000 0
0.420000 0.040000 0
0.440000 0.040000 0
0.460000 0.040000 0
0.480000 0.040000 0
0.500000 0.040000 0
0.520000 0.040000 0
0.540000 0.040000 0
0.560000 0.040000 0
0.580000 0.040000 0
0.600000 0.040000 0
0.620000 0.040000 0
0.640000 0.040000 0
0.660000 0.040000 0
0.680000 0.040000 0
0.700000 0.040000 0
0.720000 0.040000 0
0.740000 0.040000 0
0.760000 0.040000 0
0.780000 0.040000 0
0.800000 0.040000 0
0.820000 0.040000 0
0.840000 0.040000 0
0.860000 0.040000 0
0.880000 0.040000 0
0.900000 0.040000 0
0.920000 0.040000 0
0.940000 0.040000 0
0.960000 0.040000 0
0.980000 0.040000 0
1.000000 0.040000 0
0.000000 0.060000 0
0.020000 0.060000 0
0.040000 0.060000 0
0.060000 0.060000 0
0.080000 0.060000 0
0.100000 0.060000 0
0.120000 0.060000 0
0.140000 0.060000 0
0.160000 0.060000 0
0.180000 0.060000 0
0.200000 0.060000 0
0.220000 0.060000 0
0.240000 0.060000 0
0.260000 0.060000 0
0.280000 0.060000 0
0.300000 0.060000 0
0.320000 0.060000 0
0.340000 0.060000 0
0.360000 0.060000 0
0.380000 0.060000 0
0.400000 0.060000 0
0.420000 0.060000 0
0.440000 0.060000 0
0.460000 0.060000 0
0.480000 0.060000 0
0.500000 0.060000 0
0.520000 0.060000 0
0.540000 0.060000 0
0.560000 0.060000 0
0.580000 0.060000 0
0.600000 0.060000 0
0.620000 0.060000 0
0.640000 0.060000 0
0.660000 0.060000 0
0.680000 0.060000 0
0.700000 0.060000 0
0.720000 0.060000 0
0.740000 0.060000 0
0.760000 0.060000 0
0.780000 0.060000 0
0.800000 0.060000 0
0.820000 0.060000 0
0.840000 0.060000 0
0.860000 0.060000 0
0.880000 0.060000 0
0.900000 0.060000 0
0.920000 0.060000 0
0.940000 0.060000 0
0.960000 0.060000 0
0.980000 0.060000 0
1.000000 0.060000 0
0.000000 0.080000 0
0.020000 0.080000 0
0.040000 0.080000 0
0.060000 0.080000 0
0.080000 0.080000 0
0.100000 0.080000 0
0.120000 0.080000 0
0.140000 0.080000 0
0.160000 0.080000 0
0.180000 0.080000 0
0.200000 0.080000 0
0.220000 0.080000 0
0.240000 0.080000 0
0.260000 0.080000 0
0.280000 0.080000 0
0.300000 0.080000 0
0.320000 0.080000 0
0.340000 0.080000 0
0.360000 0.080000 0
0.380000 0.080000 0
0.400000 0.080000 0
0.420000 0.080000 0
0.440000 0.080000 0
0.460000 0.080000 0
0.480000 0.080000 0
0.500000 0.080000 0
0.520000 0.080000 0
0.540000 0.080000 0
0.560000 0.080000 0
0.580000 0.080000 0
0.600000 0.080000 0
0.620000 0.080000 0
0.640000 0.080000 0
0.660000 0.080000 0
0.680000 0.080000 0
0.700000 0.080000 0
0.720000 0.080000 0
0.740000 0.080000 0
0.760000 0.080000 0
0.780000 0.080000 0
0.800000 0.080000 0
0.820000 0.080000 0
0.840000 0.080000 0
0.860000 0.080000 0
0.880000 0.080000 0
0.900000 0.080000 0
0.920000 0.080000 0
0.940000 0.080000 0
0.960000 0.080000 0
0.980000 0.080000 0
1.000000 0.080000 0
0.000000 0.100000 0
0.020000 0.100000 0
0.040000 0.100000 0
0.060000 0.100000 0
0.080000 0.100000 0
0.100000 0.100000 0
0.120000 0.100000 0
0.140000 0.100000 0
0.160000 0.100000 0
0.180000 0.100000 0
0.200000 0.100000 0
0.220000 0.100000 0
0.240000 0.100000 0
0.260000 0.100000 0
0.280000 0.100000 0
0.300000 0.100000 0
0.320000 0.100000 0
0.340000 0.100000 0
0.360000 0.100000 0
0.380000 0.100000 0
0.400000 0.100000 0
0.420000 0.100000 0
0.440000 0.100000 0
0.460000 0.100000 0
0.480000 0.100000 0
0.500000 0.100000 0
0.520000 0.100000 0
0.540000 0.100000 0
0.560000 0.100000 0
0.580000 0.100000 0
0.600000 0.100000 0
0.620000 0.100000 0
0.640000 0.100000 0
0.660000 0.100000 0
0.680000 0.100000 0
0.700000 0.100000 0
0.720000 0.100000 0
0.740000 0.100000 0
0.760000 0.100000 0
0.780000 0.100000 0
0.800000 0.100000 0
0.820000 0.100000 0
0.840000 0.100000 0
0.860000 0.100000 0
0.880000 0.100000 0
0.900000 0.100000 0
0.920000 0.100000 0
0.940000 0.100000 0
0.960000 0.100000 0
0.980000 0.100000 0
1.000000 0.100000 0
0.000000 0.120000 0
0.020000 0.120000 0
0.040000 0.120000 0
0.060000 0.120000 0
0.080000 0.120000 0
0.100000 0.120000 0
0.120000 0.120000 0
0.140000 0.120000 0
0.160000 0.120000 0
0.180000 0.120000 0
0.200000 0.120000 0
0.220000 0.120000 0
0.240000 0.120000 0
0.260000 0.120000 0
0.280000 0.120000 0
0.300000 0.120000 0
0.320000 0.120000 0
0.340000 0.120000 0
0.360000 0.120000 0
0.380000 0.120000 0
0.400000 0.120000 0
0.420000 0.120000 0
0.440000 0.120000 0
0.460000 0.120000 0
0.480000 0.120000 0
0.500000 0.120000 0
0.520000 0.120000 0
0.540000 0.120000 0
0.560000 0.120000 0
0.580000 0.120000 0
0.600000 0.120000 0
0.620000 0.120000 0
0.640000 0.120000 0
0.660000 0.120000 0
0.680000 0.120000 0
0.700000 0.120000 0
0.720000 0.120000 0
0.740000 0.120000 0
0.760000 0.120000 0
0.780000 0.120000 0
0.800000 0.120000 0
0.820000 0.120000 0
0.840000 0.120000 0
0.860000 0.120000 0
0.880000 0.120000 0
0.900000 0.120000 0
0.920000 0.120000 0
0.940000 0.120000 0
0.960000 0.120000 0
0.980000 0.120000 0
1.000000 0.120000 0
0.000000 0.140000 0
0.020000 0.140000 0
0.040000 0.140000 0
0.060000 0.140000 0
0.080000 0.140000 0
0.100000 0.140000 0
0.120000 0.140000 0
0.140000 0.140000 0
0.160000 0.140000 0
0.180000 0.140000 0
0.200000 0.140000 0
0.220000 0.140000 0
0.240000 0.140000 0
0.260000 0.140000 0
0.280000 0.140000 0
0.300000 0.140000 0
0.320000 0.140000 0
0.340000 0.140000 0
0.360000 0.140000 0
0.380000 0.140000 0
0.400000 0.140000 0
0.420000 0.140000 0
0.440000 0.140000 0
0.460000 0.140000 0
0.480000 0.140000 0
0.500000 0.140000 0
0.520000 0.140000 0
0.540000 0.140000 0
0.560000 0.140000 0
0.580000 0.140000 0
0.600000 0.140000 0
0.620000 0.140000 0
0.640000 0.140000 0
0.660000 0.140000 0
0.680000 0.140000 0
0.700000 0.140000 0
0.720000 0.140000 0
0.740000 0.140000 0
0.760000 0.140000 0
0.780000 0.140000 0
0.800000 0.140000 0
0.820000 0.140000 0
0.840000 0.140000 0
0.860000 0.140000 0
0.880000 0.140000 0
0.900000 0.140000 0
0.920000 0.140000 0
0.940000 0.140000 0
0.960000 0.140000 0
0.980000 0.140000 0
1.000000 0.140000 0
0.000000 0.160000 0
0.020000 0.160000 0
0.040000 0.160000 0
0.060000 0.160000 0
0.080000 0.160000 0
0.100000 0.160000 0
0.120000 0.160000 0
0.140000 0.160000 0
0.160000 0.160000 0
0.180000 0.160000 0
0.200000 0.160000 0
0.220000 0.160000 0
0.240000 0.160000 0
0.260000 0.160000 0
0.280000 0.160000 0
0.300000 0.160000 0
0.320000 0.160000 0
0.340000 0.160000 0
0.360000 0.160000 0
0.380000 0.160000 0
0.400000 0.160000 0
0.420000 0.160000 0
0.440000 0.160000 0
0.460000 0.160000 0
0.480000 0.160000 0
0.500000 0.160000 0
0.520000 0.160000 0
0.540000 0.160000 0
0.560000 0.160000 0
0.580000 0.160000 0
0.600000 0.160000 0
0.620000 0.160000 0
0.640000 0.160000 0
0.660000 0.160000 0
0.680000 0.160000 0
0.700000 0.160000 0
0.720000 0.160000 0
0.740000 0.160000 0
0.760000 0.160000 0
0.780000 0.160000 0
0.800000 0.160000 0
0.820000 0.160000 0
0.840000 0.160000 0
0.860000 0.160000 0
0.880000 0.160000 0
0.900000 0.160000 0
0.920000 0.160000 0
0.940000 0.160000 0
0.960000 0.160000 0
0.980000 0.160000 0
1.000000 0.160000 0
0.000000 0.180000 0
0.020000 0.180000 0
0.040000 0.180000 0
0.060000 0.180000 0
0.080000 0.180000 0
0.100000 0.180000 0
0.120000 0.180000 0
0.140000 0.180000 0
0.160000 0.180000 0
0.180000 0.180000 0
0.200000 0.180000 0
0.220000 0.180000 0
0.240000 0.180000 0
0.260000 0.180000 0
0.280000 0.180000 0
0.300000 0.180000 0
0.320000 0.180000 0
0.340000 0.180000 0
0.360000 0.180000 0
0.380000 0.180000 0
0.400000 0.180000 0
0.420000 0.180000 0
0.440000 0.180000 0
0.460000 0.180000 0
0.480000 0.180000 0
0.500000 0.180000 0
0.520000 0.180000 0
0.540000 0.180000 0
0.560000 0.180000 0
0.580000 0.180000 0
0.600000 0.180000 0
0.620000 0.180000 0
[...]
POINT_DATA 2601 

VECTORS velocity float
0.000000 0.000000 0
-0.000001 0.000000 0
-0.000000 0.000000 0
0.000000 0.000000 0
0.000000 0.000000 0
0.000000 0.000000 0
0.000000 0.000000 0
0.000000 0.000000 0
0.000000 0.000000 0
0.000000 0.000000 0
0.000000 0.000000 0
-0.000000 0.000000 0
-0.000000 0.000000 0
-0.000000 0.000000 0
-0.000000 0.000000 0
-0.000000 0.000000 0
-0.000000 0.000000 0
-0.000000 0.000000 0
0.000000 0.000000 0
0.000000 0.000000 0
0.000000 0.000000 0
-0.000000 0.000000 0
-0.000000 0.000000 0
-0.000000 0.000000 0
-0.000000 0.000000 0
-0.000000 0.000000 0
-0.000000 0.000000 0
-0.000000 0.000000 0
-0.000000 0.000000 0
-0.000000 0.000000 0
-0.000000 0.000000 0
-0.000000 0.000000 0
-0.000000 0.000000 0
-0.000000 0.000000 0
-0.000000 0.000000 0
-0.000000 0.000000 0
-0.000000 0.000000 0
-0.000000 0.000000 0
-0.000000 0.000000 0
-0.000000 0.000000 0
-0.000000 0.000000 0
0.000000 0.000000 0
0.000000 0.000000 0
0.000000 0.000000 0
0.000000 0.000000 0
0.000000 0.000000 0
0.000000 0.000000 0
0.000000 0.000000 0
0.000000 0.000000 0
0.000000 0.000000 0
0.000000 0.000000 0
0.000000 -0.000001 0
0.000058 -0.000059 0
0.000078 -0.000022 0
-0.000017 0.000055 0
-0.000257 0.000143 0
-0.000643 0.000226 0
-0.001163 0.000299 0
-0.001800 0.000359 0
-0.002533 0.000407 0
-0.003342 0.000444 0
-0.004209 0.000470 0
-0.005115 0.000487 0
-0.006045 0.000496 0
-0.006983 0.000497 0
-0.007917 0.000492 0
-0.008833 0.000480 0
-0.009718 0.000461 0
-0.010561 0.000437 0
-0.011349 0.000405 0
-0.012070 0.000367 0
-0.012711 0.000323 0
-0.013260 0.000271 0
-0.013707 0.000214 0
-0.014039 0.000150 0
-0.014248 0.000082 0
-0.014325 0.000009 0
-0.014264 -0.000066 0
-0.014061 -0.000144 0
-0.013715 -0.000221 0
-0.013229 -0.000296 0
-0.012609 -0.000368 0
-0.011864 -0.000433 0
-0.011008 -0.000490 0
-0.010056 -0.000537 0
-0.009029 -0.000572 0
-0.007951 -0.000593 0
-0.006845 -0.000600 0
-0.005740 -0.000592 0
-0.004661 -0.000568 0
-0.003636 -0.000530 0
-0.002690 -0.000477 0
-0.001848 -0.000413 0
-0.001129 -0.000337 0
-0.000548 -0.000254 0
-0.000117 -0.000167 0
0.000162 -0.000080 0
0.000295 -0.000000 0
0.000299 0.000064 0
0.000209 0.000098 0
0.000081 0.000081 0
0.000000 0.000000 0
0.000000 -0.000000 0
0.000023 -0.000079 0
-0.000077 0.000076 0
-0.000386 0.000335 0
-0.000939 0.000626 0
-0.001740 0.000906 0
-0.002771 0.001157 0
-0.004005 0.001370 0
-0.005409 0.001543 0
-0.006949 0.001676 0
-0.008593 0.001772 0
-0.010307 0.001835 0
-0.012064 0.001868 0
-0.013835 0.001872 0
-0.015595 0.001849 0
-0.017318 0.001801 0
-0.018982 0.001728 0
-0.020562 0.001631 0
-0.022035 0.001509 0
-0.023378 0.001362 0
-0.024569 0.001191 0
-0.025584 0.000996 0
-0.026405 0.000779 0
-0.027010 0.000541 0
-0.027383 0.000285 0
-0.027511 0.000016 0
-0.027382 -0.000264 0
-0.026992 -0.000549 0
-0.026339 -0.000831 0
-0.025429 -0.001106 0
-0.024273 -0.001365 0
-0.022889 -0.001602 0
-0.021302 -0.001808 0
-0.019541 -0.001978 0
-0.017644 -0.002105 0
-0.015650 -0.002184 0
-0.013605 -0.002211 0
-0.011555 -0.002185 0
-0.009550 -0.002104 0
-0.007637 -0.001971 0
-0.005862 -0.001788 0
-0.004265 -0.001562 0
-0.002883 -0.001300 0
-0.001743 -0.001012 0
-0.000862 -0.000711 0
-0.000244 -0.000412 0
0.000119 -0.000137 0
0.000259 0.000086 0
0.000226 0.000218 0
0.000101 0.000209 0
0.000000 0.000000 0
0.000000 0.000000 0
-0.000057 0.000018 0
-0.000348 0.000386 0
-0.000941 0.000917 0
-0.001862 0.001497 0
-0.003107 0.002058 0
-0.004653 0.002564 0
-0.006466 0.002997 0
-0.008503 0.003351 0
-0.010722 0.003627 0
-0.013077 0.003827 0
-0.015527 0.003958 0
-0.018032 0.004024 0
-0.020553 0.004028 0
-0.023053 0.003976 0
-0.025499 0.003867 0
-0.027854 0.003705 0
-0.030087 0.003490 0
-0.032165 0.003221 0
-0.034054 0.002901 0
-0.035723 0.002529 0
-0.037143 0.002107 0
-0.038284 0.001639 0
-0.039121 0.001129 0
-0.039631 0.000583 0
-0.039795 0.000008 0
-0.039601 -0.000586 0
-0.039042 -0.001187 0
-0.038119 -0.001784 0
-0.036838 -0.002362 0
-0.035218 -0.002907 0
-0.033282 -0.003404 0
-0.031063 -0.003838 0
-0.028604 -0.004195 0
-0.025954 -0.004463 0
-0.023167 -0.004632 0
-0.020303 -0.004695 0
-0.017428 -0.004646 0
-0.014605 -0.004486 0
-0.011899 -0.004218 0
-0.009372 -0.003849 0
-0.007078 -0.003391 0
-0.005066 -0.002860 0
-0.003373 -0.002276 0
-0.002021 -0.001666 0
-0.001020 -0.001062 0
-0.000356 -0.000503 0
0.000003 -0.000042 0
0.000117 0.000256 0
0.000074 0.000306 0
0.000000 0.000000 0
0.000000 0.000000 0
-0.000152 0.000269 0
-0.000670 0.000960 0
-0.001587 0.001849 0
-0.002909 0.002791 0
-0.004620 0.003698 0
-0.006688 0.004517 0
-0.009071 0.005220 0
-0.011718 0.005798 0
-0.014579 0.006249 0
-0.017600 0.006577 0
-0.020731 0.006790 0
-0.023923 0.006893 0
-0.027130 0.006894 0
-0.030304 0.006795 0
-0.033403 0.006603 0
-0.036385 0.006317 0
-0.039206 0.005941 0
-0.041825 0.005475 0
-0.044203 0.004920 0
-0.046300 0.004280 0
-0.048080 0.003557 0
-0.049507 0.002757 0
-0.050549 0.001888 0
-0.051181 0.000960 0
-0.051380 -0.000014 0
-0.051131 -0.001017 0
-0.050427 -0.002031 0
-0.049269 -0.003035 0
-0.047668 -0.004007 0
-0.045643 -0.004922 0
-0.043225 -0.005756 0
-0.040455 -0.006486 0
-0.037383 -0.007088 0
-0.034068 -0.007543 0
-0.030577 -0.007834 0
-0.026983 -0.007950 0
-0.023363 -0.007883 0
-0.019796 -0.007632 0
-0.016360 -0.007204 0
-0.013129 -0.006609 0
-0.010171 -0.005867 0
-0.007544 -0.005005 0
-0.005294 -0.004057 0
-0.003452 -0.003064 0
-0.002029 -0.002078 0
-0.001016 -0.001160 0
-0.000381 -0.000387 0
-0.000063 0.000147 0
0.000024 0.000326 0
0.000000 0.000000 0
0.000000 0.000000 0
-0.000251 0.000688 0
-0.001009 0.001820 0
-0.002268 0.003156 0
-0.004009 0.004530 0
-0.006199 0.005838 0
-0.008793 0.007015 0
-0.011739 0.008026 0
-0.014980 0.008858 0
-0.018456 0.009508 0
-0.022109 0.009980 0
-0.025881 0.010282 0
-0.029714 0.010423 0
-0.033556 0.010410 0
-0.037354 0.010250 0
-0.041055 0.009948 0
-0.044611 0.009507 0
-0.047971 0.008930 0
-0.051087 0.008219 0
-0.053913 0.007376 0
-0.056403 0.006405 0
-0.058515 0.005313 0
-0.060207 0.004109 0
-0.061444 0.002804 0
-0.062196 0.001413 0
-0.062437 -0.000042 0
-0.062152 -0.001538 0
-0.061330 -0.003049 0
-0.059975 -0.004544 0
-0.058098 -0.005989 0
-0.055721 -0.007350 0
-0.052881 -0.008592 0
-0.049623 -0.009680 0
-0.046004 -0.010582 0
-0.042091 -0.011269 0
-0.037961 -0.011717 0
-0.033697 -0.011908 0
-0.029387 -0.011833 0
-0.025122 -0.011490 0
-0.020991 -0.010886 0
-0.017082 -0.010038 0
-0.013472 -0.008976 0
-0.010231 -0.007736 0
-0.007414 -0.006368 0
-0.005059 -0.004931 0
-0.003185 -0.003497 0
-0.001787 -0.002151 0
-0.000837 -0.000995 0
-0.000280 -0.000148 0
-0.000037 0.000243 0
0.000000 0.000000 0
0.000000 0.000000 0
-0.000348 0.001278 0
-0.001348 0.002977 0
-0.002954 0.004849 0
-0.005120 0.006723 0
-0.007793 0.008482 0
-0.010912 0.010056 0
-0.014414 0.011406 0
-0.018234 0.012514 0
-0.022306 0.013378 0
-0.026563 0.014002 0
-0.030943 0.014396 0
-0.035383 0.014570 0
-0.039823 0.014533 0
-0.044204 0.014294 0
-0.048469 0.013859 0
-0.052561 0.013232 0
-0.056425 0.012417 0
-0.060007 0.011417 0
-0.063254 0.010237 0
-0.066117 0.008881 0
-0.068546 0.007360 0
-0.070497 0.005687 0
-0.071930 0.003877 0
-0.072811 0.001953 0
-0.073111 -0.000058 0
-0.072814 -0.002124 0
-0.071907 -0.004208 0
-0.070393 -0.006268 0
-0.068285 -0.008261 0
-0.065606 -0.010139 0
-0.062395 -0.011855 0
-0.058701 -0.013363 0
-0.054587 -0.014620 0
-0.050126 -0.015586 0
-0.045402 -0.016228 0
-0.040508 -0.016524 0
-0.035541 -0.016458 0
-0.030602 -0.016028 0
-0.025793 -0.015244 0
-0.021211 -0.014128 0
-0.016948 -0.012718 0
-0.013082 -0.011063 0
-0.009680 -0.009229 0
-0.006788 -0.007293 0
-0.004435 -0.005350 0
-0.002623 -0.003508 0
-0.001331 -0.001893 0
-0.000515 -0.000652 0
-0.000102 0.000046 0
0.000000 0.000000 0
0.000000 0.000000 0
-0.000442 0.002036 0
-0.001678 0.004427 0
-0.003628 0.006929 0
-0.006217 0.009369 0
-0.009367 0.011629 0
-0.013005 0.013635 0
-0.017054 0.015348 0
-0.021440 0.016750 0
-0.026088 0.017838 0
-0.030929 0.018618 0
-0.035892 0.019103 0
-0.040911 0.019303 0
-0.045919 0.019230 0
-0.050854 0.018895 0
-0.055653 0.018304 0
-0.060254 0.017463 0
-0.064598 0.016376 0
-0.068627 0.015048 0
-0.072282 0.013486 0
-0.075508 0.011697 0
-0.078252 0.009694 0
-0.080467 0.007493 0
-0.082107 0.005117 0
-0.083135 0.002595 0
-0.083521 -0.000039 0
-0.083243 -0.002743 0
-0.082289 -0.005469 0
-0.080659 -0.008166 0
-0.078364 -0.010776 0
-0.075430 -0.013240 0
-0.071894 -0.015497 0
-0.067810 -0.017488 0
-0.063243 -0.019157 0
-0.058271 -0.020453 0
-0.052985 -0.021335 0
-0.047485 -0.021770 0
-0.041877 -0.021739 0
-0.036274 -0.021237 0
-0.030787 -0.020276 0
-0.025525 -0.018884 0
-0.020593 -0.017105 0
-0.016082 -0.015004 0
-0.012069 -0.012662 0
-0.008614 -0.010176 0
-0.005753 -0.007663 0
-0.003502 -0.005255 0
-0.001848 -0.003103 0
-0.000756 -0.001378 0
-0.000166 -0.000272 0
0.000000 0.000000 0
0.000000 0.000000 0
-0.000531 0.002956 0
-0.001996 0.006163 0
-0.004281 0.009388 0
-0.007283 0.012461 0
-0.010902 0.015270 0
-0.015048 0.017742 0
-0.019631 0.019840 0
-0.024567 0.021549 0
-0.029775 0.022868 0
-0.035179 0.023806 0
-0.040703 0.024378 0
-0.046277 0.024597 0
-0.051831 0.024476 0
-0.057297 0.024027 0
-0.062609 0.023259 0
-0.067702 0.022178 0
-0.072512 0.020790 0
-0.076977 0.019100 0
-0.081034 0.017117 0
-0.084625 0.014852 0
-0.087693 0.012320 0
-0.090185 0.009541 0
-0.092054 0.006545 0
-0.093257 0.003367 0
-0.093762 0.000049 0
-0.093542 -0.003356 0
-0.092583 -0.006792 0
-0.090882 -0.010193 0
-0.088448 -0.013490 0
-0.085305 -0.016608 0
-0.081490 -0.019475 0
-0.077057 -0.022015 0
-0.072073 -0.024159 0
-0.066621 -0.025843 0
-0.060796 -0.027015 0
-0.054703 -0.027632 0
-0.048460 -0.027670 0
-0.042188 -0.027119 0
-0.036010 -0.025992 0
-0.030050 -0.024322 0
-0.024424 -0.022161 0
-0.019237 -0.019587 0
-0.014582 -0.016697 0
-0.010530 -0.013609 0
-0.007133 -0.010462 0
-0.004417 -0.007413 0
-0.002381 -0.004639 0
-0.001002 -0.002334 0
-0.000231 -0.000711 0
0.000000 0.000000 0
0.000000 0.000000 0
-0.000615 0.004032 0
-0.002299 0.008177 0
-0.004908 0.012215 0
-0.008308 0.015989 0
-0.012383 0.019393 0
-0.017021 0.022364 0
-0.022122 0.024867 0
-0.027591 0.026895 0
-0.033341 0.028450 0
-0.039289 0.029546 0
-0.045355 0.030201 0
-0.051464 0.030430 0
-0.057544 0.030250 0
-0.063524 0.029673 0
-0.069334 0.028709 0
-0.074907 0.027366 0
-0.080176 0.025651 0
-0.085074 0.023570 0
-0.089537 0.021134 0
-0.093502 0.018356 0
-0.096909 0.015254 0
-0.099701 0.011854 0
-0.101827 0.008189 0
-0.103241 0.004303 0
-0.103904 0.000246 0
-0.103787 -0.003922 0
-0.102872 -0.008130 0
-0.101149 -0.012301 0
-0.098627 -0.016353 0
-0.095324 -0.020198 0
-0.091276 -0.023745 0
-0.086535 -0.026905 0
-0.081169 -0.029593 0
-0.075262 -0.031731 0
-0.068914 -0.033253 0
-0.062238 -0.034105 0
-0.055356 -0.034254 0
-0.048403 -0.033687 0
-0.041514 -0.032414 0
-0.034826 -0.030470 0
-0.028471 -0.027918 0
-0.022571 -0.024846 0
-0.017234 -0.021369 0
-0.012549 -0.017625 0
-0.008581 -0.013776 0
-0.005371 -0.010006 0
-0.002933 -0.006517 0
-0.001253 -0.003528 0
-0.000295 -0.001274 0
0.000000 0.000000 0
0.000000 0.000000 0
-0.000695 0.005256 0
-0.002588 0.010455 0
-0.005504 0.015396 0
-0.009288 0.019936 0
-0.013798 0.023982 0
-0.018911 0.027482 0
-0.024510 0.030411 0
-0.030494 0.032769 0
-0.036765 0.034565 0
-0.043236 0.035820 0
-0.049825 0.036553 0
-0.056451 0.036785 0
-0.063040 0.036535 0
-0.069519 0.035818 0
-0.075817 0.034643 0
-0.081862 0.033020 0
-0.087587 0.030957 0
-0.092921 0.028461 0
-0.097799 0.025545 0
-0.102153 0.022224 0
-0.105921 0.018519 0
-0.109041 0.014459 0
-0.111460 0.010085 0
-0.113125 0.005444 0
-0.113993 0.000596 0
-0.114031 -0.004389 0
-0.113212 -0.009430 0
-0.111524 -0.014438 0
-0.108967 -0.019316 0
-0.105557 -0.023959 0
-0.101325 -0.028263 0
-0.096319 -0.032121 0
-0.090607 -0.035431 0
-0.084272 -0.038098 0
-0.077417 -0.040039 0
-0.070161 -0.041190 0
-0.062635 -0.041504 0
-0.054983 -0.040962 0
-0.047356 -0.039569 0
-0.039905 -0.037365 0
-0.032779 -0.034416 0
-0.026121 -0.030824 0
-0.020055 -0.026720 0
-0.014691 -0.022263 0
-0.010112 -0.017640 0
-0.006375 -0.013061 0
-0.003509 -0.008756 0
-0.001513 -0.004971 0
-0.000361 -0.001964 0
0.000000 0.000000 0
0.000000 0.000000 0
-0.000770 0.006620 0
-0.002860 0.012985 0
-0.006068 0.018914 0
-0.010214 0.024283 0
-0.015140 0.029017 0
-0.020705 0.033076 0
-0.026781 0.036451 0
-0.033256 0.039150 0
-0.040027 0.041193 0
-0.047001 0.042606 0
-0.054091 0.043415 0
-0.061216 0.043645 0
-0.068298 0.043318 0
-0.075263 0.042450 0
-0.082038 0.041052 0
-0.088552 0.039136 0
-0.094732 0.036710 0
-0.100509 0.033782 0
-0.105813 0.030366 0
-0.110575 0.026478 0
-0.114730 0.022142 0
-0.118212 0.017393 0
-0.120962 0.012273 0
-0.122925 0.006837 0
-0.124050 0.001152 0
-0.124297 -0.004703 0
-0.123635 -0.010636 0
-0.122042 -0.016546 0
-0.119512 -0.022320 0
-0.116053 -0.027840 0
-0.111690 -0.032983 0
-0.106467 -0.037623 0
-0.100447 -0.041641 0
-0.093713 -0.044921 0
-0.086370 -0.047364 0
-0.078540 -0.048887 0
-0.070363 -0.049432 0
-0.061993 -0.048967 0
-0.053597 -0.047493 0
-0.045342 -0.045047 0
-0.037399 -0.041702 0
-0.029929 -0.037570 0
-0.023083 -0.032798 0
-0.016988 -0.027568 0
-0.011750 -0.022092 0
-0.007446 -0.016609 0
-0.004121 -0.011379 0
-0.001788 -0.006676 0
-0.000430 -0.002787 0
0.000000 0.000000 0
0.000000 0.000000 0
-0.000841 0.008115 0
-0.003114 0.015752 0
-0.006595 0.022750 0
-0.011083 0.029009 0
-0.016401 0.034473 0
-0.022392 0.039123 0
-0.028919 0.042963 0
-0.035860 0.046015 0
-0.043107 0.048310 0
-0.050560 0.049883 0
-0.058130 0.050768 0
-0.065734 0.050993 0
-0.073293 0.050583 0
-0.080730 0.049558 0
-0.087974 0.047931 0
-0.094950 0.045713 0
-0.101587 0.042914 0
-0.107813 0.039542 0
-0.113557 0.035612 0
-0.118749 0.031141 0
-0.123318 0.026156 0
-0.127197 0.020692 0
-0.130322 0.014797 0
-0.132630 0.008532 0
-0.134067 0.001969 0
-0.134585 -0.004804 0
-0.134142 -0.011685 0
-0.132710 -0.018561 0
-0.130273 -0.025305 0
-0.126830 -0.031781 0
-0.122397 -0.037849 0
-0.117011 -0.043365 0
-0.110730 -0.048185 0
-0.103633 -0.052175 0
-0.095825 -0.055213 0
-0.087431 -0.057197 0
-0.078598 -0.058050 0
-0.069494 -0.057728 0
-0.060297 -0.056221 0
-0.051197 -0.053562 0
-0.042384 -0.049829 0
-0.034047 -0.045141 0
-0.026358 -0.039661 0
-0.019473 -0.033595 0
-0.013522 -0.027182 0
-0.008603 -0.020690 0
-0.004780 -0.014415 0
-0.002083 -0.008663 0
-0.000503 -0.003752 0
0.000000 -0.000000 0
0.000000 -0.000000 0
-0.000906 0.009733 0
-0.003350 0.018739 0
-0.007084 0.026883 0
-0.011889 0.034089 0
-0.017572 0.040326 0
-0.023962 0.045595 0
-0.030911 0.049919 0
-0.038290 0.053337 0
-0.045984 0.055892 0
-0.053890 0.057629 0
-0.061915 0.058589 0
-0.069976 0.058808 0
-0.077993 0.058315 0
-0.085888 0.057131 0
-0.093589 0.055272 0
-0.101022 0.052749 0
-0.108115 0.049573 0
-0.114796 0.045752 0
-0.120993 0.041301 0
-0.126634 0.036238 0
-0.131645 0.030591 0
-0.135956 0.024396 0
-0.139498 0.017706 0
-0.142203 0.010582 0
-0.144009 0.003106 0
-0.144859 -0.004629 0
-0.144704 -0.012511 0
-0.143503 -0.020415 0
-0.141232 -0.028200 0
-0.137876 -0.035716 0
-0.133443 -0.042801 0
-0.127958 -0.049290 0
-0.121470 -0.055018 0
-0.114056 -0.059826 0
-0.105815 -0.063566 0
-0.096876 -0.066114 0
-0.087391 -0.067369 0
-0.077538 -0.067268 0
-0.067513 -0.065790 0
-0.057525 -0.062959 0
-0.047790 -0.058852 0
-0.038523 -0.053597 0
-0.029926 -0.047372 0
-0.022184 -0.040404 0
-0.015456 -0.032963 0
-0.009866 -0.025351 0
-0.005500 -0.017899 0
-0.002404 -0.010954 0
-0.000583 -0.004870 0
0.000000 -0.000000 0
0.000000 -0.000000 0
-0.000966 0.011465 0
-0.003565 0.021930 0
-0.007531 0.031290 0
-0.012627 0.039497 0
-0.018645 0.046546 0
-0.025402 0.052462 0
-0.032742 0.057291 0
-0.040526 0.061087 0
-0.048636 0.063909 0
-0.056965 0.065815 0
-0.065419 0.066855 0
-0.073912 0.067070 0
-0.082363 0.066495 0
-0.090698 0.065154 0
-0.098841 0.063065 0
-0.106722 0.060240 0
-0.114268 0.056689 0
-0.121407 0.052421 0
-0.128066 0.047449 0
-0.134172 0.041792 0
-0.139650 0.035478 0
-0.144427 0.028545 0
-0.148426 0.021044 0
-0.151577 0.013043 0
-0.153809 0.004625 0
-0.155055 -0.004110 0
-0.155258 -0.013041 0
-0.154364 -0.022033 0
-0.152336 -0.030932 0
-0.149147 -0.039570 0
-0.144790 -0.047768 0
-0.139280 -0.055337 0
-0.132654 -0.062086 0
-0.124979 -0.067830 0
-0.116350 -0.072393 0
-0.106895 -0.075621 0
-0.096772 -0.077388 0
-0.086167 -0.077606 0
-0.075292 -0.076234 0
-0.064378 -0.073285 0
-0.053668 -0.068831 0
-0.043407 -0.063005 0
-0.033831 -0.056000 0
-0.025160 -0.048064 0
-0.017585 -0.039500 0
-0.011259 -0.030646 0
-0.006296 -0.021876 0
-0.002760 -0.013580 0
-0.000672 -0.006156 0
0.000000 -0.000000 0
0.000000 -0.000000 0
-0.001019 0.013298 0
-0.003758 0.025305 0
-0.007933 0.035946 0
-0.013291 0.045203 0
-0.019612 0.053101 0
-0.026702 0.059692 0
-0.034396 0.065043 0
-0.042551 0.069231 0
-0.051042 0.072331 0
-0.059761 0.074412 0
-0.068611 0.075536 0
-0.077506 0.075752 0
-0.086366 0.075100 0
-0.095115 0.073608 0
-0.103683 0.071296 0
-0.111996 0.068176 0
-0.119986 0.064258 0
-0.127580 0.059551 0
-0.134705 0.054067 0
-0.141288 0.047822 0
-0.147253 0.040845 0
-0.152521 0.033172 0
-0.157016 0.024856 0
-0.160658 0.015965 0
-0.163370 0.006584 0
-0.165076 -0.003180 0
-0.165706 -0.013202 0
-0.165197 -0.023337 0
-0.163494 -0.033418 0
-0.160558 -0.043262 0
-0.156365 -0.052668 0
-0.150914 -0.061427 0
-0.144230 -0.069319 0
-0.136366 -0.076129 0
-0.127410 -0.081650 0
-0.117486 -0.085692 0
-0.106751 -0.088097 0
-0.095403 -0.088748 0
-0.083667 -0.087579 0
-0.071796 -0.084583 0
-0.060063 -0.079824 0
-0.048745 -0.073434 0
-0.038118 -0.065618 0
-0.028439 -0.056651 0
-0.019938 -0.046864 0
-0.012804 -0.036640 0
-0.007181 -0.026398 0
-0.003158 -0.016578 0
-0.000771 -0.007630 0
0.000000 -0.000000 0
0.000000 0.000000 0
-0.001066 0.015222 0
-0.003927 0.028844 0
-0.008286 0.040823 0
-0.013875 0.051176 0
-0.020463 0.059957 0
-0.027849 0.067247 0
-0.035860 0.073140 0
-0.044345 0.077733 0
-0.053179 0.081119 0
-0.062249 0.083384 0
-0.071458 0.084599 0
-0.080720 0.084825 0
-0.089956 0.084104 0
-0.099092 0.082471 0
-0.108058 0.079946 0
-0.116783 0.076543 0
-0.125200 0.072272 0
-0.133238 0.067140 0
-0.140826 0.061158 0
-0.147889 0.054340 0
-0.154351 0.046711 0
-0.160132 0.038308 0
-0.165151 0.029180 0
-0.169323 0.019396 0
-0.172563 0.009043 0
-0.174789 -0.001773 0
-0.175916 -0.012920 0
-0.175869 -0.024245 0
-0.174577 -0.035571 0
-0.171986 -0.046699 0
-0.168052 -0.057412 0
-0.162758 -0.067472 0
-0.156109 -0.076634 0
-0.148145 -0.084650 0
-0.138941 -0.091274 0
-0.128610 -0.096280 0
-0.117312 -0.099471 0
-0.105246 -0.100690 0
-0.092652 -0.099840 0
-0.079806 -0.096889 0
-0.067009 -0.091882 0
-0.054577 -0.084950 0
-0.042825 -0.076306 0
-0.032056 -0.066245 0
-0.022545 -0.055135 0
-0.014523 -0.043403 0
-0.008169 -0.031522 0
-0.003604 -0.019989 0
-0.000884 -0.009314 0
0.000000 -0.000000 0
0.000000 0.000000 0
-0.001105 0.017225 0
-0.004071 0.032525 0
-0.008586 0.045894 0
-0.014373 0.057381 0
-0.021192 0.067075 0
-0.028833 0.075088 0
-0.037117 0.081539 0
-0.045890 0.086550 0
-0.055022 0.090234 0
-0.064401 0.092691 0
-0.073928 0.094007 0
-0.083516 0.094250 0
-0.093090 0.093472 0
-0.102575 0.091710 0
-0.111905 0.088987 0
-0.121013 0.085319 0
-0.129832 0.080713 0
-0.138294 0.075177 0
-0.146330 0.068717 0
-0.153866 0.061348 0
-0.160826 0.053088 0
-0.167129 0.043972 0
-0.172691 0.034047 0
-0.177422 0.023378 0
-0.181233 0.012050 0
-0.184029 0.000173 0
-0.185717 -0.012122 0
-0.186207 -0.024675 0
-0.185414 -0.037301 0
-0.183262 -0.049787 0
-0.179691 -0.061896 0
-0.174662 -0.073370 0
-0.168158 -0.083932 0
-0.160201 -0.093298 0
-0.150846 -0.101185 0
-0.140197 -0.107320 0
-0.128403 -0.111462 0
-0.115668 -0.113408 0
-0.102241 -0.113018 0
-0.088417 -0.110226 0
-0.074529 -0.105054 0
-0.060930 -0.097618 0
-0.047984 -0.088139 0
-0.036044 -0.076931 0
-0.025434 -0.064397 0
-0.016438 -0.051015 0
-0.009276 -0.037316 0
-0.004107 -0.023864 0
-0.001011 -0.011234 0
0.000000 -0.000000 0
0.000000 0.000000 0
-0.001137 0.019293 0
-0.004187 0.036325 0
-0.008830 0.051126 0
-0.014780 0.063781 0
-0.021789 0.074416 0
-0.029641 0.083171 0
-0.038153 0.090197 0
-0.047168 0.095638 0
-0.056551 0.099630 0
-0.066190 0.102289 0
-0.075986 0.103715 0
-0.085854 0.103987 0
-0.095719 0.103163 0
-0.105510 0.101286 0
-0.115162 0.098383 0