# vtk DataFile Version 2.0
generated by CFD-lab course output (written by Tobias Neckel) 
ASCII

DATASET STRUCTURED_GRID
DIMENSIONS  51 51 1 
POINTS 2601 float

0.000000 0.000000 0
0.020000 0.000000 0
0.040000 0.000000 0
0.060000 0.000000 0
0.080000 0.000000 0
0.100000 0.000000 0
0.120000 0.000000 0
0.140000 0.000000 0
0.160000 0.000000 0
0.180000 0.000000 0
0.200000 0.000000 0
0.220000 0.000000 0
0.240000 0.000000 0
0.260000 0.000000 0
0.280000 0.000000 0
0.300000 0.000000 0
0.320000 0.000000 0
0.340000 0.000000 0
0.360000 0.000000 0
0.380000 0.000000 0
0.400000 0.000000 0
0.420000 0.000000 0
0.440000 0.000000 0
0.460000 0.000000 0
0.480000 0.000000 0
0.500000 0.000000 0
0.520000 0.000000 0
0.540000 0.000000 0
0.560000 0.000000 0
0.580000 0.000000 0
0.600000 0.000000 0
0.620000 0.000000 0
0.640000 0.000000 0
0.660000 0.000000 0
0.680000 0.000000 0
0.700000 0.000000 0
0.720000 0.000000 0
0.740000 0.000000 0
0.760000 0.000000 0
0.780000 0.000000 0
0.800000 0.000000 0
0.820000 0.000000 0
0.840000 0.000000 0
0.860000 0.000000 0
0.880000 0.000000 0
0.900000 0.000000 0
0.920000 0.000000 0
0.940000 0.000000 0
0.960000 0.000000 0
0.980000 0.000000 0
1.000000 0.000000 0
0.000000 0.020000 0
0.020000 0.020000 0
0.040000 0.020000 0
0.060000 0.020000 0
0.080000 0.020000 0
0.100000 0.020000 0
0.120000 0.020000 0
0.140000 0.020000 0
0.160000 0.020000 0
0.180000 0.020000 0
0.200000 0.020000 0
0.220000 0.020000 0
0.240000 0.020000 0
0.260000 0.020000 0
0.280000 0.020000 0
0.300000 0.020000 0
0.320000 0.020000 0
0.340000 0.020000 0
0.360000 0.020000 0
0.380000 0.020000 0
0.400000 0.020000 0
0.420000 0.020000 0
0.440000 0.020000 0
0.460000 0.020000 0
0.480000 0.020000 0
0.500000 0.020000 0
0.520000 0.020000 0
0.540000 0.020000 0
0.560000 0.020000 0
0.580000 0.020000 0
0.600000 0.020000 0
0.620000 0.020000 0
0.640000 0.020000 0
0.660000 0.020000 0
0.680000 0.020000 0
0.700000 0.020000 0
0.720000 0.020000 0
0.740000 0.020000 0
0.760000 0.020000 0
0.780000 0.020000 0
0.800000 0.020000 0
0.820000 0.020000 0
0.840000 0.020000 0
0.860000 0.020000 0
0.880000 0.020000 0
0.900000 0.020000 0
0.920000 0.020000 0
0.940000 0.020000 0
0.960000 0.020000 0
0.980000 0.020000 0
1.000000 0.020000 0
0.000000 0.040000 0
0.020000 0.040000 0
0.040000 0.040000 0
0.060000 0.040000 0
0.080000 0.040000 0
0.100000 0.040000 0
0.120000 0.040000 0
0.140000 0.040000 0
0.160000 0.040000 0
0.180000 0.040000 0
0.200000 0.040000 0
0.220000 0.040000 0
0.240000 0.040000 0
0.260000 0.040000 0
0.280000 0.040000 0
0.300000 0.040000 0
0.320000 0.040000 0
0.340000 0.040000 0
0.360000 0.040000 0
0.380000 0.040000 0
0.400000 0.040000 0
0.420000 0.040000 0
0.440000 0.040000 0
0.460000 0.040000 0
0.480000 0.040000 0
0.500000 0.040000 0
0.520000 0.040000 0
0.540000 0.040000 0
0.560000 0.040000 0
0.580000 0.040000 0
0.600000 0.040000 0
0.620000 0.040000 0
0.640000 0.040000 0
0.660000 0.040000 0
0.680000 0.040000 0
0.700000 0.040000 0
0.720000 0.040000 0
0.740000 0.040000 0
0.760000 0.040000 0
0.780000 0.040000 0
0.800000 0.040000 0
0.820000 0.040000 0
0.840000 0.040000 0
0.860000 0.040000 0
0.880000 0.040000 0
0.900000 0.040000 0
0.920000 0.040000 0
0.940000 0.040000 0
0.960000 0.040000 0
0.980000 0.040000 0
1.000000 0.040000 0
0.000000 0.060000 0
0.020000 0.060000 0
0.040000 0.060000 0
0.060000 0.060000 0
0.080000 0.060000 0
0.100000 0.060000 0
0.120000 0.060000 0
0.140000 0.060000 0
0.160000 0.060000 0
0.180000 0.060000 0
0.200000 0.060000 0
0.220000 0.060000 0
0.240000 0.060000 0
0.260000 0.060000 0
0.280000 0.060000 0
0.300000 0.060000 0
0.320000 0.060000 0
0.340000 0.060000 0
0.360000 0.060000 0
0.380000 0.060000 0
0.400000 0.060000 0
0.420000 0.060000 0
0.440000 0.060000 0
0.460000 0.060000 0
0.480000 0.060000 0
0.500000 0.060000 0
0.520000 0.060000 0
0.540000 0.060000 0
0.560000 0.060000 0
0.580000 0.060000 0
0.600000 0.060000 0
0.620000 0.060000 0
0.640000 0.060000 0
0.660000 0.060000 0
0.680000 0.060000 0
0.700000 0.060000 0
0.720000 0.060000 0
0.740000 0.060000 0
0.760000 0.060000 0
0.780000 0.060000 0
0.800000 0.060000 0
0.820000 0.060000 0
0.840000 0.060000 0
0.860000 0.060000 0
0.880000 0.060000 0
0.900000 0.060000 0
0.920000 0.060000 0
0.940000 0.060000 0
0.960000 0.060000 0
0.980000 0.060000 0
1.000000 0.060000 0
0.000000 0.080000 0
0.020000 0.080000 0
0.040000 0.080000 0
0.060000 0.080000 0
0.080000 0.080000 0
0.100000 0.080000 0
0.120000 0.080000 0
0.140000 0.080000 0
0.160000 0.080000 0
0.180000 0.080000 0
0.200000 0.080000 0
0.220000 0.080000 0
0.240000 0.080000 0
0.260000 0.080000 0
0.280000 0.080000 0
0.300000 0.080000 0
0.320000 0.080000 0
0.340000 0.080000 0
0.360000 0.080000 0
0.380000 0.080000 0
0.400000 0.080000 0
0.420000 0.080000 0
0.440000 0.080000 0
0.460000 0.080000 0
0.480000 0.080000 0
0.500000 0.080000 0
0.520000 0.080000 0
0.540000 0.080000 0
0.560000 0.080000 0
0.580000 0.080000 0
0.600000 0.080000 0
0.620000 0.080000 0
0.640000 0.080000 0
0.660000 0.080000 0
0.680000 0.080000 0
0.700000 0.080000 0
0.720000 0.080000 0
0.740000 0.080000 0
0.760000 0.080000 0
0.780000 0.080000 0
0.800000 0.080000 0
0.820000 0.080000 0
0.840000 0.080000 0
0.860000 0.080000 0
0.880000 0.080000 0
0.900000 0.080000 0
0.920000 0.080000 0
0.940000 0.080000 0
0.960000 0.080000 0
0.980000 0.080000 0
1.000000 0.080000 0
0.000000 0.100000 0
0.020000 0.100000 0
0.040000 0.100000 0
0.060000 0.100000 0
0.080000 0.100000 0
0.100000 0.100000 0
0.120000 0.100000 0
0.140000 0.100000 0
0.160000 0.100000 0
0.180000 0.100000 0
0.200000 0.100000 0
0.220000 0.100000 0
0.240000 0.100000 0
0.260000 0.100000 0
0.280000 0.100000 0
0.300000 0.100000 0
0.320000 0.100000 0
0.340000 0.100000 0
0.360000 0.100000 0
0.380000 0.100000 0
0.400000 0.100000 0
0.420000 0.100000 0
0.440000 0.100000 0
0.460000 0.100000 0
0.480000 0.100000 0
0.500000 0.100000 0
0.520000 0.100000 0
0.540000 0.100000 0
0.560000 0.100000 0
0.580000 0.100000 0
0.600000 0.100000 0
0.620000 0.100000 0
0.640000 0.100000 0
0.660000 0.100000 0
0.680000 0.100000 0
0.700000 0.100000 0
0.720000 0.100000 0
0.740000 0.100000 0
0.760000 0.100000 0
0.780000 0.100000 0
0.800000 0.100000 0
0.820000 0.100000 0
0.840000 0.100000 0
0.860000 0.100000 0
0.880000 0.100000 0
0.900000 0.100000 0
0.920000 0.100000 0
0.940000 0.100000 0
0.960000 0.100000 0
0.980000 0.100000 0
1.000000 0.100000 0
0.000000 0.120000 0
0.020000 0.120000 0
0.040000 0.120000 0
0.060000 0.120000 0
0.080000 0.120000 0
0.100000 0.120000 0
0.120000 0.120000 0
0.140000 0.120000 0
0.160000 0.120000 0
0.180000 0.120000 0
0.200000 0.120000 0
0.220000 0.120000 0
0.240000 0.120000 0
0.260000 0.120000 0
0.280000 0.120000 0
0.300000 0.120000 0
0.320000 0.120000 0
0.340000 0.120000 0
0.360000 0.120000 0
0.380000 0.120000 0
0.400000 0.120000 0
0.420000 0.120000 0
0.440000 0.120000 0
0.460000 0.120000 0
0.480000 0.120000 0
0.500000 0.120000 0
0.520000 0.120000 0
0.540000 0.120000 0
0.560000 0.120000 0
0.580000 0.120000 0
0.600000 0.120000 0
0.620000 0.120000 0
0.640000 0.120000 0
0.660000 0.120000 0
0.680000 0.120000 0
0.700000 0.120000 0
0.720000 0.120000 0
0.740000 0.120000 0
0.760000 0.120000 0
0.780000 0.120000 0
0.800000 0.120000 0
0.820000 0.120000 0
0.840000 0.120000 0
0.860000 0.120000 0
0.880000 0.120000 0
0.900000 0.120000 0
0.920000 0.120000 0
0.940000 0.120000 0
0.960000 0.120000 0
0.980000 0.120000 0
1.000000 0.120000 0
0.000000 0.140000 0
0.020000 0.140000 0
0.040000 0.140000 0
0.060000 0.140000 0
0.080000 0.140000 0
0.100000 0.140000 0
0.120000 0.140000 0
0.140000 0.140000 0
0.160000 0.140000 0
0.180000 0.140000 0
0.200000 0.140000 0
0.220000 0.140000 0
0.240000 0.140000 0
0.260000 0.140000 0
0.280000 0.140000 0
0.300000 0.140000 0
0.320000 0.140000 0
0.340000 0.140000 0
0.360000 0.140000 0
0.380000 0.140000 0
0.400000 0.140000 0
0.420000 0.140000 0
0.440000 0.140000 0
0.460000 0.140000 0
0.480000 0.140000 0
0.500000 0.140000 0
0.520000 0.140000 0
0.540000 0.140000 0
0.560000 0.140000 0
0.580000 0.140000 0
0.600000 0.140000 0
0.620000 0.140000 0
0.640000 0.140000 0
0.660000 0.140000 0
0.680000 0.140000 0
0.700000 0.140000 0
0.720000 0.140000 0
0.740000 0.140000 0
0.760000 0.140000 0
0.780000 0.140000 0
0.800000 0.140000 0
0.820000 0.140000 0
0.840000 0.140000 0
0.860000 0.140000 0
0.880000 0.140000 0
0.900000 0.140000 0
0.920000 0.140000 0
0.940000 0.140000 0
0.960000 0.140000 0
0.980000 0.140000 0
1.000000 0.140000 0
0.000000 0.160000 0
0.020000 0.160000 0
0.040000 0.160000 0
0.060000 0.160000 0
0.080000 0.160000 0
0.100000 0.160000 0
0.120000 0.160000 0
0.140000 0.160000 0
0.160000 0.160000 0
0.180000 0.160000 0
0.200000 0.160000 0
0.220000 0.160000 0
0.240000 0.160000 0
0.260000 0.160000 0
0.280000 0.160000 0
0.300000 0.160000 0
0.320000 0.160000 0
0.340000 0.160000 0
0.360000 0.160000 0
0.380000 0.160000 0
0.400000 0.160000 0
0.420000 0.160000 0
0.440000 0.160000 0
0.460000 0.160000 0
0.480000 0.160000 0
0.500000 0.160000 0
0.520000 0.160000 0
0.540000 0.160000 0
0.560000 0.160000 0
0.580000 0.160000 0
0.600000 0.160000 0
0.620000 0.160000 0
0.640000 0.160000 0
0.660000 0.160000 0
0.680000 0.160000 0
0.700000 0.160000 0
0.720000 0.160000 0
0.740000 0.160000 0
0.760000 0.160000 0
0.780000 0.160000 0
0.800000 0.160000 0
0.820000 0.160000 0
0.840000 0.160000 0
0.860000 0.160000 0
0.880000 0.160000 0
0.900000 0.160000 0
0.920000 0.160000 0
0.940000 0.160000 0
0.960000 0.160000 0
0.980000 0.160000 0
1.000000 0.160000 0
0.000000 0.180000 0
0.020000 0.180000 0
0.040000 0.180000 0
0.060000 0.180000 0
0.080000 0.180000 0
0.100000 0.180000 0
0.120000 0.180000 0
0.140000 0.180000 0
0.160000 0.180000 0
0.180000 0.180000 0
0.200000 0.180000 0
0.220000 0.180000 0
0.240000 0.180000 0
0.260000 0.180000 0
0.280000 0.180000 0
0.300000 0.180000 0
0.320000 0.180000 0
0.340000 0.180000 0
0.360000 0.180000 0
0.380000 0.180000 0
0.400000 0.180000 0
0.420000 0.180000 0
0.440000 0.180000 0
0.460000 0.180000 0
0.480000 0.180000 0
0.500000 0.180000 0
0.520000 0.180000 0
0.540000 0.180000 0
0.560000 0.180000 0
0.580000 0.180000 0
0.600000 0.180000 0
0.620000 0.180000 0
[...]
POINT_DATA 2601 

VECTORS velocity float
0.000000 0.000000 0
-0.000000 0.000000 0
-0.000000 0.000000 0
0.000000 0.000000 0
0.000000 0.000000 0
0.000000 0.000000 0
0.000000 0.000000 0
-0.000000 0.000000 0
-0.000000 0.000000 0
-0.000000 0.000000 0
-0.000000 0.000000 0
0.000000 0.000000 0
0.000000 0.000000 0
0.000000 0.000000 0
0.000000 0.000000 0
-0.000000 0.000000 0
-0.000000 0.000000 0
-0.000000 0.000000 0
-0.000000 0.000000 0
-0.000000 0.000000 0
-0.000000 0.000000 0
-0.000000 0.000000 0
-0.000000 0.000000 0
-0.000000 0.000000 0
-0.000000 0.000000 0
-0.000000 0.000000 0
-0.000000 0.000000 0
-0.000000 0.000000 0
-0.000000 0.000000 0
-0.000000 0.000000 0
-0.000000 0.000000 0
-0.000000 0.000000 0
-0.000000 0.000000 0
-0.000000 0.000000 0
-0.000000 0.000000 0
-0.000000 0.000000 0
-0.000000 0.000000 0
-0.000000 0.000000 0
-0.000000 0.000000 0
-0.000000 0.000000 0
0.000000 0.000000 0
0.000000 0.000000 0
0.000000 0.000000 0
0.000000 0.000000 0
0.000000 0.000000 0
0.000000 0.000000 0
0.000000 0.000000 0
0.000000 0.000000 0
0.000000 0.000000 0
-0.000000 0.000000 0
0.000000 0.000000 0
0.000000 -0.000000 0
0.000059 -0.000059 0
0.000080 -0.000022 0
-0.000015 0.000056 0
-0.000256 0.000144 0
-0.000644 0.000227 0
-0.001167 0.000300 0
-0.001807 0.000360 0
-0.002544 0.000409 0
-0.003358 0.000446 0
-0.004229 0.000473 0
-0.005141 0.000490 0
-0.006076 0.000499 0
-0.007019 0.000501 0
-0.007959 0.000495 0
-0.008880 0.000483 0
-0.009771 0.000464 0
-0.010618 0.000439 0
-0.011411 0.000408 0
-0.012136 0.000369 0
-0.012780 0.000324 0
-0.013333 0.000273 0
-0.013782 0.000215 0
-0.014115 0.000151 0
-0.014325 0.000082 0
-0.014401 0.000009 0
-0.014339 -0.000067 0
-0.014134 -0.000145 0
-0.013785 -0.000223 0
-0.013295 -0.000299 0
-0.012670 -0.000370 0
-0.011920 -0.000436 0
-0.011057 -0.000493 0
-0.010100 -0.000540 0
-0.009067 -0.000575 0
-0.007982 -0.000597 0
-0.006870 -0.000603 0
-0.005758 -0.000595 0
-0.004673 -0.000571 0
-0.003643 -0.000532 0
-0.002693 -0.000479 0
-0.001847 -0.000414 0
-0.001126 -0.000338 0
-0.000544 -0.000255 0
-0.000112 -0.000167 0
0.000167 -0.000080 0
0.000299 0.000001 0
0.000302 0.000065 0
0.000211 0.000099 0
0.000081 0.000081 0
0.000000 0.000000 0
0.000000 -0.000000 0
0.000023 -0.000080 0
-0.000076 0.000075 0
-0.000385 0.000336 0
-0.000941 0.000628 0
-0.001746 0.000910 0
-0.002783 0.001163 0
-0.004024 0.001377 0
-0.005436 0.001551 0
-0.006985 0.001685 0
-0.008638 0.001783 0
-0.010362 0.001846 0
-0.012129 0.001879 0
-0.013911 0.001883 0
-0.015682 0.001860 0
-0.017416 0.001812 0
-0.019089 0.001738 0
-0.020678 0.001640 0
-0.022160 0.001517 0
-0.023510 0.001369 0
-0.024707 0.001197 0
-0.025728 0.001001 0
-0.026552 0.000782 0
-0.027160 0.000543 0
-0.027534 0.000286 0
-0.027661 0.000014 0
-0.027529 -0.000268 0
-0.027134 -0.000554 0
-0.026476 -0.000838 0
-0.025558 -0.001115 0
-0.024394 -0.001375 0
-0.023000 -0.001613 0
-0.021402 -0.001820 0
-0.019630 -0.001991 0
-0.017720 -0.002118 0
-0.015714 -0.002197 0
-0.013656 -0.002224 0
-0.011595 -0.002197 0
-0.009580 -0.002115 0
-0.007657 -0.001980 0
-0.005873 -0.001796 0
-0.004270 -0.001568 0
-0.002883 -0.001304 0
-0.001739 -0.001014 0
-0.000855 -0.000711 0
-0.000237 -0.000411 0
0.000126 -0.000135 0
0.000263 0.000089 0
0.000228 0.000221 0
0.000101 0.000211 0
0.000000 0.000000 0
0.000000 0.000000 0
-0.000056 0.000017 0
-0.000349 0.000387 0
-0.000944 0.000921 0
-0.001870 0.001504 0
-0.003122 0.002068 0
-0.004677 0.002577 0
-0.006500 0.003013 0
-0.008550 0.003370 0
-0.010781 0.003648 0
-0.013150 0.003850 0
-0.015616 0.003982 0
-0.018135 0.004048 0
-0.020672 0.004053 0
-0.023187 0.003999 0
-0.025647 0.003890 0
-0.028017 0.003727 0
-0.030263 0.003510 0
-0.032352 0.003240 0
-0.034252 0.002917 0
-0.035930 0.002542 0
-0.037357 0.002118 0
-0.038503 0.001646 0
-0.039343 0.001133 0
-0.039853 0.000583 0
-0.040016 0.000004 0
-0.039818 -0.000593 0
-0.039253 -0.001199 0
-0.038321 -0.001799 0
-0.037030 -0.002381 0
-0.035397 -0.002929 0
-0.033447 -0.003428 0
-0.031213 -0.003864 0
-0.028738 -0.004222 0
-0.026070 -0.004491 0
-0.023266 -0.004660 0
-0.020385 -0.004722 0
-0.017494 -0.004672 0
-0.014656 -0.004509 0
-0.011936 -0.004239 0
-0.009397 -0.003866 0
-0.007093 -0.003405 0
-0.005073 -0.002870 0
-0.003373 -0.002282 0
-0.002018 -0.001668 0
-0.001014 -0.001061 0
-0.000350 -0.000500 0
0.000008 -0.000037 0
0.000120 0.000261 0
0.000075 0.000310 0
0.000000 0.000000 0
0.000000 0.000000 0
-0.000153 0.000269 0
-0.000673 0.000963 0
-0.001595 0.001857 0
-0.002924 0.002805 0
-0.004646 0.003717 0
-0.006726 0.004541 0
-0.009123 0.005250 0
-0.011786 0.005832 0
-0.014664 0.006286 0
-0.017704 0.006617 0
-0.020855 0.006831 0
-0.024067 0.006935 0
-0.027292 0.006935 0
-0.030486 0.006836 0
-0.033604 0.006642 0
-0.036603 0.006354 0
-0.039440 0.005975 0
-0.042074 0.005506 0
-0.044465 0.004947 0
-0.046574 0.004302 0
-0.048362 0.003574 0
-0.049794 0.002768 0
-0.050840 0.001893 0
-0.051473 0.000959 0
-0.051669 -0.000021 0
-0.051415 -0.001031 0
-0.050703 -0.002051 0
-0.049534 -0.003061 0
-0.047919 -0.004039 0
-0.045878 -0.004959 0
-0.043443 -0.005797 0
-0.040653 -0.006530 0
-0.037561 -0.007134 0
-0.034225 -0.007590 0
-0.030713 -0.007881 0
-0.027098 -0.007996 0
-0.023457 -0.007926 0
-0.019871 -0.007672 0
-0.016417 -0.007239 0
-0.013170 -0.006639 0
-0.010198 -0.005892 0
-0.007560 -0.005024 0
-0.005302 -0.004069 0
-0.003453 -0.003070 0
-0.002027 -0.002079 0
-0.001012 -0.001157 0
-0.000377 -0.000381 0
-0.000061 0.000154 0
0.000025 0.000331 0
0.000000 0.000000 0
0.000000 0.000000 0
-0.000252 0.000690 0
-0.001015 0.001828 0
-0.002281 0.003171 0
-0.004033 0.004554 0
-0.006236 0.005870 0
-0.008846 0.007055 0
-0.011810 0.008074 0
-0.015071 0.008912 0
-0.018569 0.009566 0
-0.022245 0.010041 0
-0.026040 0.010344 0
-0.029898 0.010486 0
-0.033764 0.010472 0
-0.037584 0.010311 0
-0.041308 0.010007 0
-0.044884 0.009563 0
-0.048263 0.008981 0
-0.051397 0.008265 0
-0.054238 0.007416 0
-0.056741 0.006438 0
-0.058862 0.005339 0
-0.060561 0.004126 0
-0.061802 0.002811 0
-0.062554 0.001412 0
-0.062792 -0.000053 0
-0.062500 -0.001559 0
-0.061669 -0.003080 0
-0.060300 -0.004583 0
-0.058407 -0.006036 0
-0.056012 -0.007405 0
-0.053151 -0.008653 0
-0.049870 -0.009746 0
-0.046227 -0.010651 0
-0.042289 -0.011339 0
-0.038134 -0.011787 0
-0.033845 -0.011977 0
-0.029511 -0.011898 0
-0.025222 -0.011550 0
-0.021070 -0.010940 0
-0.017141 -0.010085 0
-0.013515 -0.009014 0
-0.010260 -0.007766 0
-0.007431 -0.006389 0
-0.005068 -0.004943 0
-0.003188 -0.003502 0
-0.001786 -0.002150 0
-0.000835 -0.000989 0
-0.000279 -0.000141 0
-0.000037 0.000249 0
0.000000 0.000000 0
0.000000 0.000000 0
-0.000350 0.001283 0
-0.001356 0.002991 0
-0.002973 0.004874 0
-0.005153 0.006760 0
-0.007842 0.008531 0
-0.010980 0.010116 0
-0.014505 0.011475 0
-0.018349 0.012591 0
-0.022447 0.013460 0
-0.026732 0.014088 0
-0.031140 0.014484 0
-0.035608 0.014658 0
-0.040075 0.014621 0
-0.044482 0.014380 0
-0.048772 0.013941 0
-0.052888 0.013309 0
-0.056773 0.012488 0
-0.060375 0.011481 0
-0.063640 0.010291 0
-0.066516 0.008926 0
-0.068956 0.007394 0
-0.070914 0.005709 0
-0.072351 0.003886 0
-0.073231 0.001949 0
-0.073528 -0.000075 0
-0.073223 -0.002154 0
-0.072305 -0.004251 0
-0.070777 -0.006323 0
-0.068650 -0.008326 0
-0.065950 -0.010214 0
-0.062716 -0.011939 0
-0.058996 -0.013454 0
-0.054855 -0.014715 0
-0.050366 -0.015683 0
-0.045613 -0.016326 0
-0.040690 -0.016619 0
-0.035695 -0.016549 0
-0.030730 -0.016113 0
-0.025896 -0.015320 0
-0.021292 -0.014195 0
-0.017008 -0.012773 0
-0.013125 -0.011107 0
-0.009708 -0.009261 0
-0.006806 -0.007314 0
-0.004444 -0.005360 0
-0.002627 -0.003510 0
-0.001332 -0.001889 0
-0.000514 -0.000645 0
-0.000101 0.000052 0
0.000000 0.000000 0
0.000000 -0.000000 0
-0.000445 0.002045 0
-0.001689 0.004450 0
-0.003652 0.006967 0
-0.006257 0.009423 0
-0.009429 0.011699 0
-0.013090 0.013719 0
-0.017165 0.015443 0
-0.021580 0.016854 0
-0.026258 0.017948 0
-0.031130 0.018733 0
-0.036124 0.019220 0
-0.041174 0.019421 0
-0.046213 0.019347 0
-0.051178 0.019008 0
-0.056005 0.018412 0
-0.060632 0.017564 0
-0.065001 0.016469 0
-0.069050 0.015131 0
-0.072724 0.013557 0
-0.075965 0.011755 0
-0.078721 0.009737 0
-0.080943 0.007520 0
-0.082587 0.005128 0
-0.083615 0.002589 0
-0.083997 -0.000062 0
-0.083710 -0.002783 0
-0.082743 -0.005526 0
-0.081097 -0.008238 0
-0.078782 -0.010863 0
-0.075825 -0.013339 0
-0.072264 -0.015607 0
-0.068152 -0.017606 0
-0.063555 -0.019281 0
-0.058552 -0.020581 0
-0.053235 -0.021463 0
-0.047703 -0.021895 0
-0.042064 -0.021859 0
-0.036430 -0.021349 0
-0.030915 -0.020378 0
-0.025627 -0.018973 0
-0.020671 -0.017181 0
-0.016140 -0.015066 0
-0.012110 -0.012708 0
-0.008640 -0.010208 0
-0.005769 -0.007681 0
-0.003510 -0.005261 0
-0.001852 -0.003101 0
-0.000757 -0.001372 0
-0.000166 -0.000265 0
0.000000 0.000000 0
0.000000 -0.000000 0
-0.000535 0.002972 0
-0.002010 0.006198 0
-0.004310 0.009443 0
-0.007332 0.012537 0
-0.010975 0.015364 0
-0.015148 0.017853 0
-0.019762 0.019965 0
-0.024730 0.021684 0
-0.029972 0.023010 0
-0.035411 0.023954 0
-0.040970 0.024528 0
-0.046578 0.024747 0
-0.052165 0.024624 0
-0.057664 0.024171 0
-0.063007 0.023396 0
-0.068128 0.022306 0
-0.072964 0.020906 0
-0.077452 0.019204 0
-0.081529 0.017206 0
-0.085136 0.014923 0
-0.088216 0.012373 0
-0.090716 0.009575 0
-0.092589 0.006558 0
-0.093792 0.003359 0
-0.094291 0.000020 0
-0.094062 -0.003407 0
-0.093090 -0.006863 0
-0.091372 -0.010284 0
-0.088917 -0.013598 0
-0.085749 -0.016733 0
-0.081907 -0.019612 0
-0.077444 -0.022163 0
-0.072428 -0.024314 0
-0.066943 -0.026003 0
-0.061083 -0.027175 0
-0.054956 -0.027790 0
-0.048679 -0.027822 0
-0.042373 -0.027262 0
-0.036164 -0.026123 0
-0.030174 -0.024438 0
-0.024521 -0.022261 0
-0.019311 -0.019669 0
-0.014635 -0.016760 0
-0.010567 -0.013654 0
-0.007156 -0.010490 0
-0.004430 -0.007427 0
-0.002388 -0.004642 0
-0.001004 -0.002330 0
-0.000231 -0.000705 0
0.000000 0.000000 0
0.000000 -0.000000 0
-0.000620 0.004055 0
-0.002316 0.008226 0
-0.004941 0.012290 0
-0.008365 0.016089 0
-0.012467 0.019515 0
-0.017137 0.022505 0
-0.022272 0.025024 0
-0.027777 0.027064 0
-0.033564 0.028628 0
-0.039549 0.029731 0
-0.045653 0.030387 0
-0.051799 0.030616 0
-0.057916 0.030433 0
-0.063930 0.029849 0
-0.069773 0.028877 0
-0.075377 0.027522 0
-0.080673 0.025793 0
-0.085595 0.023696 0
-0.090079 0.021241 0
-0.094061 0.018441 0
-0.097481 0.015317 0
-0.100281 0.011893 0
-0.102411 0.008204 0
-0.103825 0.004292 0
-0.104483 0.000209 0
-0.104357 -0.003984 0
-0.103427 -0.008217 0
-0.101687 -0.012412 0
-0.099142 -0.016485 0
-0.095814 -0.020349 0
-0.091737 -0.023912 0
-0.086965 -0.027085 0
-0.081565 -0.029783 0
-0.075623 -0.031926 0
-0.069239 -0.033449 0
-0.062525 -0.034299 0
-0.055607 -0.034442 0
-0.048617 -0.033864 0
-0.041694 -0.032577 0
-0.034973 -0.030616 0
-0.028588 -0.028045 0
-0.022661 -0.024952 0
-0.017301 -0.021452 0
-0.012595 -0.017687 0
-0.008611 -0.013818 0
-0.005389 -0.010030 0
-0.002942 -0.006527 0
-0.001257 -0.003528 0
-0.000296 -0.001270 0
0.000000 0.000000 0
0.000000 -0.000000 0
-0.000700 0.005287 0
-0.002606 0.010520 0
-0.005542 0.015493 0
-0.009352 0.020063 0
-0.013893 0.024135 0
-0.019040 0.027657 0
-0.024677 0.030605 0
-0.030699 0.032976 0
-0.037011 0.034783 0
-0.043523 0.036043 0
-0.050151 0.036778 0
-0.056817 0.037010 0
-0.063445 0.036755 0
-0.069961 0.036029 0
-0.076293 0.034843 0
-0.082370 0.033206 0
-0.088124 0.031125 0
-0.093484 0.028610 0
-0.098383 0.025671 0
-0.102755 0.022325 0
-0.106536 0.018593 0
-0.109665 0.014505 0
-0.112088 0.010101 0
-0.113753 0.005430 0
-0.114616 0.000552 0
-0.114644 -0.004463 0
-0.113811 -0.009533 0
-0.112105 -0.014569 0
-0.109526 -0.019472 0
-0.106090 -0.024138 0
-0.101828 -0.028461 0
-0.096790 -0.032335 0
-0.091042 -0.035656 0
-0.084671 -0.038330 0
-0.077777 -0.040274 0
-0.070482 -0.041422 0
-0.062917 -0.041729 0
-0.055227 -0.041175 0
-0.047561 -0.039767 0
-0.040075 -0.037543 0
-0.032916 -0.034573 0
-0.026227 -0.030956 0
-0.020135 -0.026826 0
-0.014748 -0.022344 0
-0.010150 -0.017697 0
-0.006398 -0.013097 0
-0.003521 -0.008774 0
-0.001519 -0.004976 0
-0.000362 -0.001962 0
0.000000 0.000000 0
0.000000 -0.000000 0
-0.000776 0.006661 0
-0.002880 0.013068 0
-0.006110 0.019036 0
-0.010285 0.024440 0
-0.015245 0.029203 0
-0.020847 0.033288 0
-0.026963 0.036684 0
-0.033479 0.039398 0
-0.040293 0.041452 0
-0.047310 0.042871 0
-0.054443 0.043682 0
-0.061609 0.043910 0
-0.068732 0.043576 0
-0.075735 0.042697 0
-0.082546 0.041286 0
-0.089093 0.039353 0
-0.095303 0.036906 0
-0.101106 0.033954 0
-0.106432 0.030511 0
-0.111213 0.026594 0
-0.115381 0.022228 0
-0.118873 0.017445 0
-0.121628 0.012291 0
-0.123590 0.006820 0
-0.124711 0.001100 0
-0.124949 -0.004789 0
-0.124272 -0.010755 0
-0.122661 -0.016697 0
-0.120109 -0.022500 0
-0.116624 -0.028047 0
-0.112231 -0.033212 0
-0.106975 -0.037871 0
-0.100919 -0.041902 0
-0.094148 -0.045191 0
-0.086764 -0.047638 0
-0.078893 -0.049159 0
-0.070675 -0.049697 0
-0.062265 -0.049220 0
-0.053828 -0.047729 0
-0.045535 -0.045261 0
-0.037556 -0.041892 0
-0.030053 -0.037732 0
-0.023176 -0.032931 0
-0.017055 -0.027672 0
-0.011796 -0.022168 0
-0.007474 -0.016659 0
-0.004136 -0.011406 0
-0.001794 -0.006687 0
-0.000431 -0.002788 0
0.000000 0.000000 0
0.000000 0.000000 0
-0.000847 0.008167 0
-0.003136 0.015854 0
-0.006641 0.022898 0
-0.011160 0.029198 0
-0.016513 0.034697 0
-0.022544 0.039375 0
-0.029114 0.043237 0
-0.036098 0.046306 0
-0.043389 0.048613 0
-0.050887 0.050192 0
-0.058502 0.051078 0
-0.066149 0.051299 0
-0.073749 0.050881 0
-0.081227 0.049844 0
-0.088507 0.048200 0
-0.095517 0.045962 0
-0.102185 0.043138 0
-0.108438 0.039739 0
-0.114205 0.035778 0
-0.119415 0.031274 0
-0.123998 0.026253 0
-0.127887 0.020752 0
-0.131017 0.014818 0
-0.133326 0.008513 0
-0.134759 0.001910 0
-0.135267 -0.004902 0
-0.134811 -0.011821 0
-0.133361 -0.018732 0
-0.130902 -0.025509 0
-0.127433 -0.032016 0
-0.122971 -0.038110 0
-0.117552 -0.043647 0
-0.111235 -0.048483 0
-0.104100 -0.052484 0
-0.096251 -0.055528 0
-0.087815 -0.057511 0
-0.078940 -0.058358 0
-0.069792 -0.058022 0
-0.060553 -0.056497 0
-0.051412 -0.053816 0
-0.042560 -0.050055 0
-0.034186 -0.045336 0
-0.026465 -0.039824 0
-0.019551 -0.033724 0
-0.013575 -0.027278 0
-0.008636 -0.020756 0
-0.004798 -0.014454 0
-0.002090 -0.008681 0
-0.000505 -0.003757 0
0.000000 0.000000 0
0.000000 0.000000 0
-0.000912 0.009797 0
-0.003373 0.018862 0
-0.007133 0.027059 0
-0.011971 0.034312 0
-0.017691 0.040588 0
-0.024122 0.045889 0
-0.031115 0.050238 0
-0.038539 0.053674 0
-0.046279 0.056241 0
-0.054231 0.057983 0
-0.062303 0.058943 0
-0.070408 0.059157 0
-0.078467 0.058654 0
-0.086402 0.057455 0
-0.094140 0.055577 0
-0.101608 0.053030 0
-0.108732 0.049826 0
-0.115441 0.045974 0
-0.121661 0.041489 0
-0.127320 0.036388 0
-0.132346 0.030700 0
-0.136667 0.024464 0
-0.140214 0.017729 0
-0.142921 0.010562 0
-0.144723 0.003041 0
-0.145565 -0.004737 0
-0.145397 -0.012661 0
-0.144180 -0.020605 0
-0.141887 -0.028428 0
-0.138507 -0.035978 0
-0.134044 -0.043093 0
-0.128527 -0.049607 0
-0.122004 -0.055354 0
-0.114552 -0.060175 0
-0.106270 -0.063923 0
-0.097288 -0.066471 0
-0.087759 -0.067720 0
-0.077862 -0.067606 0
-0.067793 -0.066109 0
-0.057761 -0.063254 0
-0.047985 -0.059117 0
-0.038678 -0.053828 0
-0.030046 -0.047567 0
-0.022273 -0.040561 0
-0.015517 -0.033083 0
-0.009905 -0.025436 0
-0.005522 -0.017952 0
-0.002414 -0.010981 0
-0.000585 -0.004879 0
0.000000 0.000000 0
0.000000 0.000000 0
-0.000972 0.011541 0
-0.003589 0.022075 0
-0.007582 0.031496 0
-0.012712 0.039755 0
-0.018768 0.046848 0
-0.025568 0.052799 0
-0.032953 0.057655 0
-0.040784 0.061470 0
-0.048941 0.064305 0
-0.057317 0.066216 0
-0.065817 0.067254 0
-0.074354 0.067463 0
-0.082849 0.066876 0
-0.091223 0.065517 0
-0.099404 0.063406 0
-0.107319 0.060554 0
-0.114896 0.056971 0
-0.122063 0.052668 0
-0.128745 0.047658 0
-0.134870 0.041959 0
-0.140363 0.035600 0
-0.145149 0.028620 0
-0.149155 0.021071 0
-0.152307 0.013021 0
-0.154536 0.004555 0
-0.155776 -0.004228 0
-0.155967 -0.013205 0
-0.155058 -0.022242 0
-0.153010 -0.031182 0
-0.149797 -0.039858 0
-0.145413 -0.048089 0
-0.139871 -0.055686 0
-0.133211 -0.062459 0
-0.125498 -0.068219 0
-0.116829 -0.072792 0
-0.107332 -0.076022 0
-0.097164 -0.077783 0
-0.086514 -0.077989 0
-0.075593 -0.076598 0
-0.064634 -0.073623 0
-0.053881 -0.069138 0
-0.043578 -0.063275 0
-0.033964 -0.056229 0
-0.025259 -0.048252 0
-0.017653 -0.039646 0
-0.011303 -0.030752 0
-0.006320 -0.021945 0
-0.002771 -0.013618 0
-0.000674 -0.006170 0
0.000000 -0.000000 0
0.000000 0.000000 0
-0.001025 0.013386 0
-0.003783 0.025472 0
-0.007985 0.036182 0
-0.013377 0.045498 0
-0.019737 0.053444 0
-0.026871 0.060073 0
-0.034611 0.065454 0
-0.042812 0.069662 0
-0.051351 0.072774 0
-0.060117 0.074860 0
-0.069013 0.075981 0
-0.077952 0.076189 0
-0.086855 0.075523 0
-0.095645 0.074011 0
-0.104249 0.071673 0
-0.112597 0.068522 0
-0.120617 0.064569 0
-0.128238 0.059823 0
-0.135386 0.054296 0
-0.141988 0.048006 0
-0.147967 0.040980 0
-0.153246 0.033256 0
-0.157747 0.024888 0
-0.161391 0.015943 0
-0.164101 0.006510 0
-0.165801 -0.003306 0
-0.166422 -0.013379 0
-0.165898 -0.023562 0
-0.164178 -0.033689 0
-0.161219 -0.043575 0
-0.157001 -0.053018 0
-0.151521 -0.061809 0
-0.144803 -0.069727 0
-0.136903 -0.076557 0
-0.127908 -0.082089 0
-0.117942 -0.086136 0
-0.107164 -0.088538 0
-0.095769 -0.089177 0
-0.083987 -0.087989 0
-0.072070 -0.084967 0
-0.060292 -0.080174 0
-0.048931 -0.073745 0
-0.038263 -0.065886 0
-0.028547 -0.056872 0
-0.020013 -0.047038 0
-0.012853 -0.036769 0
-0.007208 -0.026484 0
-0.003170 -0.016627 0
-0.000774 -0.007650 0
0.000000 -0.000000 0
0.000000 0.000000 0
-0.001072 0.015323 0
-0.003952 0.029034 0
-0.008338 0.041090 0
-0.013962 0.051507 0
-0.020589 0.060341 0
-0.028018 0.067673 0
-0.036074 0.073596 0
-0.044606 0.078211 0
-0.053487 0.081609 0
-0.062603 0.083878 0
-0.071858 0.085090 0
-0.081165 0.085305 0
-0.090443 0.084568 0
-0.099618 0.082911 0
-0.108620 0.080358 0
-0.117378 0.076922 0
-0.125825 0.072612 0
-0.133889 0.067437 0
-0.141499 0.061408 0
-0.148581 0.054540 0
-0.155057 0.046858 0
-0.160849 0.038400 0
-0.165874 0.029216 0
-0.170048 0.019375 0
-0.173288 0.008965 0
-0.175508 -0.001907 0
-0.176627 -0.013109 0
-0.176567 -0.024486 0
-0.175260 -0.035861 0
-0.172648 -0.047035 0
-0.168691 -0.057788 0
-0.163370 -0.067884 0
-0.156691 -0.077076 0
-0.148693 -0.085114 0
-0.139451 -0.091753 0
-0.129081 -0.096767 0
-0.117739 -0.099956 0
-0.105628 -0.101166 0
-0.092989 -0.100297 0
-0.080096 -0.097319 0
-0.067253 -0.092278 0
-0.054775 -0.085304 0
-0.042981 -0.076613 0
-0.032173 -0.066502 0
-0.022628 -0.055340 0
-0.014576 -0.043557 0
-0.008200 -0.031627 0
-0.003618 -0.020051 0
-0.000887 -0.009340 0
0.000000 -0.000000 0
0.000000 0.000000 0
-0.001112 0.017339 0
-0.004096 0.032738 0
-0.008637 0.046191 0
-0.014458 0.057749 0
-0.021316 0.067500 0
-0.028999 0.075557 0
-0.037327 0.082042 0
-0.046147 0.087075 0
-0.055325 0.090771 0
-0.064749 0.093231 0
-0.074320 0.094543 0
-0.083952 0.094773 0
-0.093566 0.093976 0
-0.103089 0.092188 0
-0.112454 0.089433 0
-0.121594 0.085728 0
-0.130441 0.081080 0
-0.138928 0.075497 0
-0.146985 0.068988 0
-0.154539 0.061564 0
-0.161513 0.053248 0
-0.167826 0.044073 0
-0.173394 0.034087 0
-0.178129 0.023358 0
-0.181939 0.011970 0
-0.184731 0.000032 0
-0.186411 -0.012320 0
-0.186891 -0.024929 0
-0.186084 -0.037608 0
-0.183915 -0.050143 0
-0.180324 -0.062297 0
-0.175270 -0.073809 0
-0.168739 -0.084404 0
-0.160750 -0.093797 0
-0.151361 -0.101702 0
-0.140674 -0.107847 0
-0.128840 -0.111990 0
-0.116061 -0.113928 0
-0.102589 -0.113521 0
-0.088719 -0.110703 0
-0.074784 -0.105495 0
-0.061140 -0.098016 0
-0.048150 -0.088488 0
-0.036169 -0.077225 0
-0.025524 -0.064635 0
-0.016496 -0.051197 0
-0.009310 -0.037442 0
-0.004121 -0.023940 0
-0.001015 -0.011268 0
0.000000 -0.000000 0
0.000000 0.000000 0
-0.001143 0.019419 0
-0.004211 0.036560 0
-0.008880 0.051453 0
-0.014863 0.064186 0
-0.021909 0.074881 0
-0.029802 0.083684 0
-0.038357 0.090744 0
-0.047415 0.096208 0
-0.056843 0.100212 0
-0.066526 0.102873 0
-0.076365 0.104293 0
-0.086274 0.104550 0
-0.096177 0.103705 0
-0.106004 0.101800 0
-0.115689 0.098862 0