# vtk DataFile Version 2.0
generated by CFD-lab course output (written by Tobias Neckel) 
ASCII

DATASET STRUCTURED_GRID
DIMENSIONS  51 51 1 
POINTS 2601 float

0.000000 0.000000 0
0.020000 0.000000 0
0.040000 0.000000 0
0.060000 0.000000 0
0.080000 0.000000 0
0.100000 0.000000 0
0.120000 0.000000 0
0.140000 0.000000 0
0.160000 0.000000 0
0.180000 0.000000 0
0.200000 0.000000 0
0.220000 0.000000 0
0.240000 0.000000 0
0.260000 0.000000 0
0.280000 0.000000 0
0.300000 0.000000 0
0.320000 0.000000 0
0.340000 0.000000 0
0.360000 0.000000 0
0.380000 0.000000 0
0.400000 0.000000 0
0.420000 0.000000 0
0.440000 0.000000 0
0.460000 0.000000 0
0.480000 0.000000 0
0.500000 0.000000 0
0.520000 0.000000 0
0.540000 0.000000 0
0.560000 0.000000 0
0.580000 0.000000 0
0.600000 0.000000 0
0.620000 0.000000 0
0.640000 0.000000 0
0.660000 0.000000 0
0.680000 0.000000 0
0.700000 0.000000 0
0.720000 0.000000 0
0.740000 0.000000 0
0.760000 0.000000 0
0.780000 0.000000 0
0.800000 0.000000 0
0.820000 0.000000 0
0.840000 0.000000 0
0.860000 0.000000 0
0.880000 0.000000 0
0.900000 0.000000 0
0.920000 0.000000 0
0.940000 0.000000 0
0.960000 0.000000 0
0.980000 0.000000 0
1.000000 0.000000 0
0.000000 0.020000 0
0.020000 0.020000 0
0.040000 0.020000 0
0.060000 0.020000 0
0.080000 0.020000 0
0.100000 0.020000 0
0.120000 0.020000 0
0.140000 0.020000 0
0.160000 0.020000 0
0.180000 0.020000 0
0.200000 0.020000 0
0.220000 0.020000 0
0.240000 0.020000 0
0.260000 0.020000 0
0.280000 0.020000 0
0.300000 0.020000 0
0.320000 0.020000 0
0.340000 0.020000 0
0.360000 0.020000 0
0.380000 0.020000 0
0.400000 0.020000 0
0.420000 0.020000 0
0.440000 0.020000 0
0.460000 0.020000 0
0.480000 0.020000 0
0.500000 0.020000 0
0.520000 0.020000 0
0.540000 0.020000 0
0.560000 0.020000 0
0.580000 0.020000 0
0.600000 0.020000 0
0.620000 0.020000 0
0.640000 0.020000 0
0.660000 0.020000 0
0.680000 0.020000 0
0.700000 0.020000 0
0.720000 0.020000 0
0.740000 0.020000 0
0.760000 0.020000 0
0.780000 0.020000 0
0.800000 0.020000 0
0.820000 0.020000 0
0.840000 0.020000 0
0.860000 0.020000 0
0.880000 0.020000 0
0.900000 0.020000 0
0.920000 0.020000 0
0.940000 0.020000 0
0.960000 0.020000 0
0.980000 0.020000 0
1.000000 0.020000 0
0.000000 0.040000 0
0.020000 0.040000 0
0.040000 0.040000 0
0.060000 0.040000 0
0.080000 0.040000 0
0.100000 0.040000 0
0.120000 0.040000 0
0.140000 0.040000 0
0.160000 0.040000 0
0.180000 0.040000 0
0.200000 0.040000 0
0.220000 0.040000 0
0.240000 0.040000 0
0.260000 0.040000 0
0.280000 0.040000 0
0.300000 0.040000 0
0.320000 0.040000 0
0.340000 0.040000 0
0.360000 0.040000 0
0.380000 0.040000 0
0.400000 0.040000 0
0.420000 0.040000 0
0.440000 0.040000 0
0.460000 0.040000 0
0.480000 0.040000 0
0.500000 0.040000 0
0.520000 0.040000 0
0.540000 0.040000 0
0.560000 0.040000 0
0.580000 0.040000 0
0.600000 0.040000 0
0.620000 0.040000 0
0.640000 0.040000 0
0.660000 0.040000 0
0.680000 0.040000 0
0.700000 0.040000 0
0.720000 0.040000 0
0.740000 0.040000 0
0.760000 0.040000 0
0.780000 0.040000 0
0.800000 0.040000 0
0.820000 0.040000 0
0.840000 0.040000 0
0.860000 0.040000 0
0.880000 0.040000 0
0.900000 0.040000 0
0.920000 0.040000 0
0.940000 0.040000 0
0.960000 0.040000 0
0.980000 0.040000 0
1.000000 0.040000 0
0.000000 0.060000 0
0.020000 0.060000 0
0.040000 0.060000 0
0.060000 0.060000 0
0.080000 0.060000 0
0.100000 0.060000 0
0.120000 0.060000 0
0.140000 0.060000 0
0.160000 0.060000 0
0.180000 0.060000 0
0.200000 0.060000 0
0.220000 0.060000 0
0.240000 0.060000 0
0.260000 0.060000 0
0.280000 0.060000 0
0.300000 0.060000 0
0.320000 0.060000 0
0.340000 0.060000 0
0.360000 0.060000 0
0.380000 0.060000 0
0.400000 0.060000 0
0.420000 0.060000 0
0.440000 0.060000 0
0.460000 0.060000 0
0.480000 0.060000 0
0.500000 0.060000 0
0.520000 0.060000 0
0.540000 0.060000 0
0.560000 0.060000 0
0.580000 0.060000 0
0.600000 0.060000 0
0.620000 0.060000 0
0.640000 0.060000 0
0.660000 0.060000 0
0.680000 0.060000 0
0.700000 0.060000 0
0.720000 0.060000 0
0.740000 0.060000 0
0.760000 0.060000 0
0.780000 0.060000 0
0.800000 0.060000 0
0.820000 0.060000 0
0.840000 0.060000 0
0.860000 0.060000 0
0.880000 0.060000 0
0.900000 0.060000 0
0.920000 0.060000 0
0.940000 0.060000 0
0.960000 0.060000 0
0.980000 0.060000 0
1.000000 0.060000 0
0.000000 0.080000 0
0.020000 0.080000 0
0.040000 0.080000 0
0.060000 0.080000 0
0.080000 0.080000 0
0.100000 0.080000 0
0.120000 0.080000 0
0.140000 0.080000 0
0.160000 0.080000 0
0.180000 0.080000 0
0.200000 0.080000 0
0.220000 0.080000 0
0.240000 0.080000 0
0.260000 0.080000 0
0.280000 0.080000 0
0.300000 0.080000 0
0.320000 0.080000 0
0.340000 0.080000 0
0.360000 0.080000 0
0.380000 0.080000 0
0.400000 0.080000 0
0.420000 0.080000 0
0.440000 0.080000 0
0.460000 0.080000 0
0.480000 0.080000 0
0.500000 0.080000 0
0.520000 0.080000 0
0.540000 0.080000 0
0.560000 0.080000 0
0.580000 0.080000 0
0.600000 0.080000 0
0.620000 0.080000 0
0.640000 0.080000 0
0.660000 0.080000 0
0.680000 0.080000 0
0.700000 0.080000 0
0.720000 0.080000 0
0.740000 0.080000 0
0.760000 0.080000 0
0.780000 0.080000 0
0.800000 0.080000 0
0.820000 0.080000 0
0.840000 0.080000 0
0.860000 0.080000 0
0.880000 0.080000 0
0.900000 0.080000 0
0.920000 0.080000 0
0.940000 0.080000 0
0.960000 0.080000 0
0.980000 0.080000 0
1.000000 0.080000 0
0.000000 0.100000 0
0.020000 0.100000 0
0.040000 0.100000 0
0.060000 0.100000 0
0.080000 0.100000 0
0.100000 0.100000 0
0.120000 0.100000 0
0.140000 0.100000 0
0.160000 0.100000 0
0.180000 0.100000 0
0.200000 0.100000 0
0.220000 0.100000 0
0.240000 0.100000 0
0.260000 0.100000 0
0.280000 0.100000 0
0.300000 0.100000 0
0.320000 0.100000 0
0.340000 0.100000 0
0.360000 0.100000 0
0.380000 0.100000 0
0.400000 0.100000 0
0.420000 0.100000 0
0.440000 0.100000 0
0.460000 0.100000 0
0.480000 0.100000 0
0.500000 0.100000 0
0.520000 0.100000 0
0.540000 0.100000 0
0.560000 0.100000 0
0.580000 0.100000 0
0.600000 0.100000 0
0.620000 0.100000 0
0.640000 0.100000 0
0.660000 0.100000 0
0.680000 0.100000 0
0.700000 0.100000 0
0.720000 0.100000 0
0.740000 0.100000 0
0.760000 0.100000 0
0.780000 0.100000 0
0.800000 0.100000 0
0.820000 0.100000 0
0.840000 0.100000 0
0.860000 0.100000 0
0.880000 0.100000 0
0.900000 0.100000 0
0.920000 0.100000 0
0.940000 0.100000 0
0.960000 0.100000 0
0.980000 0.100000 0
1.000000 0.100000 0
0.000000 0.120000 0
0.020000 0.120000 0
0.040000 0.120000 0
0.060000 0.120000 0
0.080000 0.120000 0
0.100000 0.120000 0
0.120000 0.120000 0
0.140000 0.120000 0
0.160000 0.120000 0
0.180000 0.120000 0
0.200000 0.120000 0
0.220000 0.120000 0
0.240000 0.120000 0
0.260000 0.120000 0
0.280000 0.120000 0
0.300000 0.120000 0
0.320000 0.120000 0
0.340000 0.120000 0
0.360000 0.120000 0
0.380000 0.120000 0
0.400000 0.120000 0
0.420000 0.120000 0
0.440000 0.120000 0
0.460000 0.120000 0
0.480000 0.120000 0
0.500000 0.120000 0
0.520000 0.120000 0
0.540000 0.120000 0
0.560000 0.120000 0
0.580000 0.120000 0
0.600000 0.120000 0
0.620000 0.120000 0
0.640000 0.120000 0
0.660000 0.120000 0
0.680000 0.120000 0
0.700000 0.120000 0
0.720000 0.120000 0
0.740000 0.120000 0
0.760000 0.120000 0
0.780000 0.120000 0
0.800000 0.120000 0
0.820000 0.120000 0
0.840000 0.120000 0
0.860000 0.120000 0
0.880000 0.120000 0
0.900000 0.120000 0
0.920000 0.120000 0
0.940000 0.120000 0
0.960000 0.120000 0
0.980000 0.120000 0
1.000000 0.120000 0
0.000000 0.140000 0
0.020000 0.140000 0
0.040000 0.140000 0
0.060000 0.140000 0
0.080000 0.140000 0
0.100000 0.140000 0
0.120000 0.140000 0
0.140000 0.140000 0
0.160000 0.140000 0
0.180000 0.140000 0
0.200000 0.140000 0
0.220000 0.140000 0
0.240000 0.140000 0
0.260000 0.140000 0
0.280000 0.140000 0
0.300000 0.140000 0
0.320000 0.140000 0
0.340000 0.140000 0
0.360000 0.140000 0
0.380000 0.140000 0
0.400000 0.140000 0
0.420000 0.140000 0
0.440000 0.140000 0
0.460000 0.140000 0
0.480000 0.140000 0
0.500000 0.140000 0
0.520000 0.140000 0
0.540000 0.140000 0
0.560000 0.140000 0
0.580000 0.140000 0
0.600000 0.140000 0
0.620000 0.140000 0
0.640000 0.140000 0
0.660000 0.140000 0
0.680000 0.140000 0
0.700000 0.140000 0
0.720000 0.140000 0
0.740000 0.140000 0
0.760000 0.140000 0
0.780000 0.140000 0
0.800000 0.140000 0
0.820000 0.140000 0
0.840000 0.140000 0
0.860000 0.140000 0
0.880000 0.140000 0
0.900000 0.140000 0
0.920000 0.140000 0
0.940000 0.140000 0
0.960000 0.140000 0
0.980000 0.140000 0
1.000000 0.140000 0
0.000000 0.160000 0
0.020000 0.160000 0
0.040000 0.160000 0
0.060000 0.160000 0
0.080000 0.160000 0
0.100000 0.160000 0
0.120000 0.160000 0
0.140000 0.160000 0
0.160000 0.160000 0
0.180000 0.160000 0
0.200000 0.160000 0
0.220000 0.160000 0
0.240000 0.160000 0
0.260000 0.160000 0
0.280000 0.160000 0
0.300000 0.160000 0
0.320000 0.160000 0
0.340000 0.160000 0
0.360000 0.160000 0
0.380000 0.160000 0
0.400000 0.160000 0
0.420000 0.160000 0
0.440000 0.160000 0
0.460000 0.160000 0
0.480000 0.160000 0
0.500000 0.160000 0
0.520000 0.160000 0
0.540000 0.160000 0
0.560000 0.160000 0
0.580000 0.160000 0
0.600000 0.160000 0
0.620000 0.160000 0
0.640000 0.160000 0
0.660000 0.160000 0
0.680000 0.160000 0
0.700000 0.160000 0
0.720000 0.160000 0
0.740000 0.160000 0
0.760000 0.160000 0
0.780000 0.160000 0
0.800000 0.160000 0
0.820000 0.160000 0
0.840000 0.160000 0
0.860000 0.160000 0
0.880000 0.160000 0
0.900000 0.160000 0
0.920000 0.160000 0
0.940000 0.160000 0
0.960000 0.160000 0
0.980000 0.160000 0
1.000000 0.160000 0
0.000000 0.180000 0
0.020000 0.180000 0
0.040000 0.180000 0
0.060000 0.180000 0
0.080000 0.180000 0
0.100000 0.180000 0
0.120000 0.180000 0
0.140000 0.180000 0
0.160000 0.180000 0
0.180000 0.180000 0
0.200000 0.180000 0
0.220000 0.180000 0
0.240000 0.180000 0
0.260000 0.180000 0
0.280000 0.180000 0
0.300000 0.180000 0
0.320000 0.180000 0
0.340000 0.180000 0
0.360000 0.180000 0
0.380000 0.180000 0
0.400000 0.180000 0
0.420000 0.180000 0
0.440000 0.180000 0
0.460000 0.180000 0
0.480000 0.180000 0
0.500000 0.180000 0
0.520000 0.180000 0
0.540000 0.180000 0
0.560000 0.180000 0
0.580000 0.180000 0
0.600000 0.180000 0
0.620000 0.180000 0
[...]
POINT_DATA 2601 

VECTORS velocity float
0.000000 0.000000 0
-0.000000 0.000000 0
-0.000001 0.000000 0
-0.000001 0.000000 0
-0.000000 0.000000 0
-0.000000 0.000000 0
0.000000 0.000000 0
0.000000 0.000000 0
0.000000 0.000000 0
0.000000 0.000000 0
-0.000000 0.000000 0
-0.000000 0.000000 0
-0.000000 0.000000 0
-0.000000 0.000000 0
-0.000000 0.000000 0
-0.000000 0.000000 0
0.000000 0.000000 0
-0.000000 0.000000 0
-0.000000 0.000000 0
-0.000000 0.000000 0
-0.000000 0.000000 0
-0.000000 0.000000 0
-0.000000 0.000000 0
0.000000 0.000000 0
0.000000 0.000000 0
-0.000000 0.000000 0
-0.000000 0.000000 0
-0.000000 0.000000 0
-0.000000 0.000000 0
-0.000000 0.000000 0
-0.000000 0.000000 0
-0.000000 0.000000 0
-0.000000 0.000000 0
-0.000000 0.000000 0
-0.000000 0.000000 0
-0.000000 0.000000 0
-0.000000 0.000000 0
-0.000000 0.000000 0
-0.000000 0.000000 0
-0.000000 0.000000 0
-0.000000 0.000000 0
-0.000000 0.000000 0
0.000000 0.000000 0
0.000000 0.000000 0
0.000000 0.000000 0
0.000000 0.000000 0
0.000000 0.000000 0
0.000000 0.000000 0
0.000000 0.000000 0
0.000000 0.000000 0
0.000000 0.000000 0
0.000000 -0.000000 0
0.000059 -0.000059 0
0.000080 -0.000023 0
-0.000016 0.000055 0
-0.000257 0.000143 0
-0.000644 0.000227 0
-0.001167 0.000300 0
-0.001808 0.000361 0
-0.002545 0.000410 0
-0.003360 0.000447 0
-0.004232 0.000473 0
-0.005144 0.000490 0
-0.006080 0.000499 0
-0.007025 0.000501 0
-0.007964 0.000495 0
-0.008886 0.000483 0
-0.009778 0.000465 0
-0.010626 0.000439 0
-0.011419 0.000408 0
-0.012144 0.000369 0
-0.012790 0.000324 0
-0.013342 0.000273 0
-0.013791 0.000215 0
-0.014125 0.000151 0
-0.014335 0.000082 0
-0.014411 0.000009 0
-0.014349 -0.000067 0
-0.014143 -0.000145 0
-0.013794 -0.000223 0
-0.013304 -0.000299 0
-0.012679 -0.000371 0
-0.011928 -0.000436 0
-0.011064 -0.000494 0
-0.010105 -0.000541 0
-0.009072 -0.000576 0
-0.007986 -0.000597 0
-0.006873 -0.000604 0
-0.005760 -0.000595 0
-0.004675 -0.000571 0
-0.003644 -0.000533 0
-0.002694 -0.000480 0
-0.001847 -0.000414 0
-0.001125 -0.000338 0
-0.000543 -0.000255 0
-0.000111 -0.000167 0
0.000168 -0.000080 0
0.000300 0.000001 0
0.000303 0.000065 0
0.000211 0.000099 0
0.000082 0.000081 0
0.000000 0.000000 0
0.000000 -0.000001 0
0.000023 -0.000081 0
-0.000077 0.000074 0
-0.000386 0.000336 0
-0.000942 0.000628 0
-0.001747 0.000911 0
-0.002784 0.001164 0
-0.004026 0.001379 0
-0.005440 0.001552 0
-0.006990 0.001686 0
-0.008644 0.001784 0
-0.010370 0.001847 0
-0.012138 0.001880 0
-0.013921 0.001884 0
-0.015693 0.001862 0
-0.017429 0.001813 0
-0.019103 0.001740 0
-0.020694 0.001641 0
-0.022176 0.001518 0
-0.023528 0.001370 0
-0.024726 0.001198 0
-0.025747 0.001002 0
-0.026572 0.000783 0
-0.027180 0.000543 0
-0.027554 0.000286 0
-0.027681 0.000014 0
-0.027549 -0.000268 0
-0.027154 -0.000555 0
-0.026494 -0.000839 0
-0.025576 -0.001116 0
-0.024410 -0.001377 0
-0.023015 -0.001614 0
-0.021415 -0.001822 0
-0.019641 -0.001993 0
-0.017730 -0.002120 0
-0.015722 -0.002199 0
-0.013663 -0.002226 0
-0.011601 -0.002198 0
-0.009584 -0.002116 0
-0.007660 -0.001981 0
-0.005875 -0.001797 0
-0.004271 -0.001569 0
-0.002883 -0.001304 0
-0.001738 -0.001014 0
-0.000855 -0.000711 0
-0.000236 -0.000411 0
0.000127 -0.000135 0
0.000264 0.000089 0
0.000229 0.000221 0
0.000102 0.000211 0
0.000000 0.000000 0
0.000000 -0.000001 0
-0.000058 0.000016 0
-0.000349 0.000386 0
-0.000945 0.000921 0
-0.001870 0.001505 0
-0.003123 0.002070 0
-0.004680 0.002580 0
-0.006505 0.003016 0
-0.008556 0.003373 0
-0.010789 0.003651 0
-0.013161 0.003853 0
-0.015627 0.003985 0
-0.018149 0.004051 0
-0.020687 0.004056 0
-0.023205 0.004002 0
-0.025667 0.003893 0
-0.028039 0.003730 0
-0.030286 0.003512 0
-0.032377 0.003242 0
-0.034278 0.002919 0
-0.035958 0.002544 0
-0.037385 0.002119 0
-0.038532 0.001648 0
-0.039372 0.001133 0
-0.039883 0.000583 0
-0.040045 0.000004 0
-0.039847 -0.000594 0
-0.039281 -0.001200 0
-0.038348 -0.001801 0
-0.037056 -0.002383 0
-0.035421 -0.002931 0
-0.033469 -0.003431 0
-0.031233 -0.003867 0
-0.028755 -0.004226 0
-0.026085 -0.004495 0
-0.023279 -0.004664 0
-0.020396 -0.004725 0
-0.017502 -0.004675 0
-0.014662 -0.004513 0
-0.011941 -0.004241 0
-0.009400 -0.003869 0
-0.007095 -0.003406 0
-0.005073 -0.002871 0
-0.003373 -0.002283 0
-0.002017 -0.001669 0
-0.001013 -0.001061 0
-0.000349 -0.000500 0
0.000009 -0.000037 0
0.000120 0.000262 0
0.000075 0.000310 0
0.000000 0.000000 0
0.000000 -0.000001 0
-0.000154 0.000268 0
-0.000674 0.000963 0
-0.001595 0.001858 0
-0.002925 0.002807 0
-0.004648 0.003721 0
-0.006731 0.004545 0
-0.009130 0.005254 0
-0.011796 0.005836 0
-0.014676 0.006291 0
-0.017718 0.006622 0
-0.020871 0.006836 0
-0.024086 0.006940 0
-0.027314 0.006940 0
-0.030511 0.006841 0
-0.033631 0.006647 0
-0.036632 0.006359 0
-0.039471 0.005980 0
-0.042108 0.005510 0
-0.044500 0.004951 0
-0.046610 0.004305 0
-0.048399 0.003576 0
-0.049833 0.002770 0
-0.050879 0.001894 0
-0.051512 0.000959 0
-0.051708 -0.000022 0
-0.051453 -0.001032 0
-0.050740 -0.002054 0
-0.049570 -0.003065 0
-0.047953 -0.004043 0
-0.045910 -0.004963 0
-0.043472 -0.005802 0
-0.040680 -0.006535 0
-0.037585 -0.007140 0
-0.034246 -0.007596 0
-0.030731 -0.007888 0
-0.027113 -0.008002 0
-0.023470 -0.007932 0
-0.019881 -0.007678 0
-0.016424 -0.007244 0
-0.013175 -0.006643 0
-0.010202 -0.005895 0
-0.007562 -0.005026 0
-0.005303 -0.004071 0
-0.003454 -0.003071 0
-0.002026 -0.002079 0
-0.001012 -0.001157 0
-0.000377 -0.000381 0
-0.000060 0.000154 0
0.000025 0.000331 0
0.000000 0.000000 0
0.000000 -0.000000 0
-0.000253 0.000690 0
-0.001015 0.001829 0
-0.002282 0.003173 0
-0.004035 0.004558 0
-0.006241 0.005875 0
-0.008853 0.007061 0
-0.011820 0.008080 0
-0.015084 0.008919 0
-0.018585 0.009573 0
-0.022263 0.010049 0
-0.026062 0.010353 0
-0.029923 0.010494 0
-0.033792 0.010481 0
-0.037615 0.010319 0
-0.041342 0.010015 0
-0.044921 0.009570 0
-0.048302 0.008988 0
-0.051438 0.008271 0
-0.054282 0.007421 0
-0.056786 0.006443 0
-0.058908 0.005342 0
-0.060608 0.004128 0
-0.061850 0.002812 0
-0.062602 0.001411 0
-0.062839 -0.000055 0
-0.062546 -0.001562 0
-0.061714 -0.003084 0
-0.060344 -0.004588 0
-0.058448 -0.006043 0
-0.056051 -0.007412 0
-0.053187 -0.008661 0
-0.049903 -0.009754 0
-0.046257 -0.010660 0
-0.042316 -0.011349 0
-0.038157 -0.011797 0
-0.033865 -0.011986 0
-0.029527 -0.011907 0
-0.025236 -0.011558 0
-0.021081 -0.010947 0
-0.017149 -0.010091 0
-0.013520 -0.009020 0
-0.010263 -0.007770 0
-0.007434 -0.006392 0
-0.005069 -0.004945 0
-0.003188 -0.003502 0
-0.001786 -0.002150 0
-0.000835 -0.000988 0
-0.000279 -0.000140 0
-0.000036 0.000250 0
0.000000 0.000000 0
0.000000 0.000000 0
-0.000350 0.001284 0
-0.001356 0.002993 0
-0.002974 0.004878 0
-0.005157 0.006765 0
-0.007848 0.008538 0
-0.010990 0.010124 0
-0.014518 0.011484 0
-0.018365 0.012601 0
-0.022466 0.013471 0
-0.026755 0.014099 0
-0.031166 0.014496 0
-0.035638 0.014670 0
-0.040109 0.014633 0
-0.044520 0.014391 0
-0.048813 0.013952 0
-0.052931 0.013320 0
-0.056820 0.012498 0
-0.060424 0.011489 0
-0.063691 0.010299 0
-0.066569 0.008932 0
-0.069011 0.007399 0
-0.070970 0.005711 0
-0.072407 0.003887 0
-0.073288 0.001948 0
-0.073584 -0.000077 0
-0.073277 -0.002158 0
-0.072358 -0.004256 0
-0.070828 -0.006330 0
-0.068699 -0.008335 0
-0.065996 -0.010225 0
-0.062759 -0.011950 0
-0.059036 -0.013466 0
-0.054891 -0.014727 0
-0.050398 -0.015696 0
-0.045642 -0.016339 0
-0.040715 -0.016632 0
-0.035716 -0.016561 0
-0.030747 -0.016124 0
-0.025910 -0.015330 0
-0.021302 -0.014204 0
-0.017016 -0.012781 0
-0.013131 -0.011113 0
-0.009712 -0.009265 0
-0.006808 -0.007317 0
-0.004445 -0.005362 0
-0.002627 -0.003510 0
-0.001332 -0.001888 0
-0.000514 -0.000644 0
-0.000101 0.000053 0
0.000000 0.000000 0
0.000000 0.000000 0
-0.000444 0.002047 0
-0.001690 0.004453 0
-0.003655 0.006973 0
-0.006263 0.009431 0
-0.009437 0.011708 0
-0.013102 0.013730 0
-0.017181 0.015455 0
-0.021598 0.016867 0
-0.026281 0.017963 0
-0.031157 0.018748 0
-0.036156 0.019235 0
-0.041209 0.019436 0
-0.046253 0.019363 0
-0.051221 0.019023 0
-0.056051 0.018427 0
-0.060683 0.017578 0
-0.065055 0.016481 0
-0.069107 0.015142 0
-0.072783 0.013566 0
-0.076026 0.011762 0
-0.078784 0.009742 0
-0.081007 0.007524 0
-0.082651 0.005130 0
-0.083679 0.002588 0
-0.084060 -0.000065 0
-0.083772 -0.002788 0
-0.082804 -0.005533 0
-0.081155 -0.008248 0
-0.078838 -0.010874 0
-0.075878 -0.013352 0
-0.072313 -0.015622 0
-0.068198 -0.017622 0
-0.063597 -0.019298 0
-0.058590 -0.020598 0
-0.053268 -0.021480 0
-0.047732 -0.021912 0
-0.042089 -0.021875 0
-0.036451 -0.021364 0
-0.030932 -0.020392 0
-0.025641 -0.018985 0
-0.020682 -0.017191 0
-0.016148 -0.015074 0
-0.012115 -0.012714 0
-0.008644 -0.010212 0
-0.005771 -0.007683 0
-0.003511 -0.005262 0
-0.001852 -0.003101 0
-0.000757 -0.001371 0
-0.000166 -0.000265 0
0.000000 0.000000 0
0.000000 0.000000 0
-0.000534 0.002974 0
-0.002011 0.006203 0
-0.004314 0.009451 0
-0.007338 0.012547 0
-0.010986 0.015376 0
-0.015162 0.017867 0
-0.019779 0.019981 0
-0.024752 0.021702 0
-0.029999 0.023029 0
-0.035442 0.023974 0
-0.041005 0.024548 0
-0.046618 0.024767 0
-0.052210 0.024644 0
-0.057713 0.024190 0
-0.063060 0.023414 0
-0.068185 0.022323 0
-0.073025 0.020922 0
-0.077516 0.019217 0
-0.081595 0.017217 0
-0.085204 0.014933 0
-0.088286 0.012379 0
-0.090787 0.009579 0
-0.092660 0.006560 0
-0.093863 0.003357 0
-0.094362 0.000016 0
-0.094132 -0.003414 0
-0.093158 -0.006873 0
-0.091437 -0.010296 0
-0.088979 -0.013613 0
-0.085808 -0.016749 0
-0.081963 -0.019631 0
-0.077496 -0.022183 0
-0.072476 -0.024335 0
-0.066986 -0.026024 0
-0.061121 -0.027197 0
-0.054990 -0.027811 0
-0.048708 -0.027842 0
-0.042398 -0.027281 0
-0.036184 -0.026141 0
-0.030191 -0.024453 0
-0.024534 -0.022274 0
-0.019321 -0.019680 0
-0.014642 -0.016769 0
-0.010571 -0.013660 0
-0.007159 -0.010494 0
-0.004431 -0.007429 0
-0.002388 -0.004642 0
-0.001005 -0.002329 0
-0.000231 -0.000705 0
0.000000 0.000000 0
0.000000 0.000000 0
-0.000620 0.004058 0
-0.002318 0.008232 0
-0.004946 0.012300 0
-0.008373 0.016102 0
-0.012479 0.019531 0
-0.017152 0.022524 0
-0.022292 0.025046 0
-0.027802 0.027087 0
-0.033594 0.028652 0
-0.039584 0.029755 0
-0.045693 0.030412 0
-0.051844 0.030641 0
-0.057965 0.030457 0
-0.063984 0.029873 0
-0.069832 0.028899 0
-0.075440 0.027543 0
-0.080740 0.025811 0
-0.085665 0.023712 0
-0.090152 0.021255 0
-0.094136 0.018453 0
-0.097557 0.015325 0
-0.100359 0.011898 0
-0.102489 0.008206 0
-0.103903 0.004290 0
-0.104560 0.000204 0
-0.104433 -0.003992 0
-0.103501 -0.008228 0
-0.101759 -0.012427 0
-0.099211 -0.016503 0
-0.095879 -0.020369 0
-0.091799 -0.023934 0
-0.087022 -0.027109 0
-0.081618 -0.029808 0
-0.075672 -0.031952 0
-0.069282 -0.033476 0
-0.062563 -0.034325 0
-0.055640 -0.034467 0
-0.048646 -0.033888 0
-0.041718 -0.032599 0
-0.034993 -0.030636 0
-0.028604 -0.028062 0
-0.022673 -0.024966 0
-0.017310 -0.021464 0
-0.012602 -0.017695 0
-0.008615 -0.013823 0
-0.005391 -0.010033 0
-0.002943 -0.006528 0
-0.001257 -0.003528 0
-0.000296 -0.001269 0
0.000000 0.000000 0
0.000000 0.000000 0
-0.000701 0.005292 0
-0.002609 0.010529 0
-0.005548 0.015506 0
-0.009361 0.020080 0
-0.013906 0.024156 0
-0.019058 0.027680 0
-0.024699 0.030631 0
-0.030727 0.033004 0
-0.037044 0.034812 0
-0.043561 0.036073 0
-0.050195 0.036809 0
-0.056866 0.037040 0
-0.063499 0.036784 0
-0.070020 0.036057 0
-0.076357 0.034869 0
-0.082439 0.033230 0
-0.088196 0.031147 0
-0.093559 0.028630 0
-0.098461 0.025688 0
-0.102835 0.022338 0
-0.106618 0.018603 0
-0.109749 0.014511 0
-0.112172 0.010103 0
-0.113836 0.005428 0
-0.114699 0.000546 0
-0.114726 -0.004473 0
-0.113891 -0.009547 0
-0.112183 -0.014586 0
-0.109601 -0.019492 0
-0.106161 -0.024162 0
-0.101895 -0.028488 0
-0.096853 -0.032363 0
-0.091101 -0.035686 0
-0.084724 -0.038361 0
-0.077826 -0.040305 0
-0.070525 -0.041453 0
-0.062955 -0.041759 0
-0.055259 -0.041204 0
-0.047589 -0.039794 0
-0.040097 -0.037567 0
-0.032934 -0.034594 0
-0.026242 -0.030974 0
-0.020146 -0.026841 0
-0.014756 -0.022355 0
-0.010155 -0.017705 0
-0.006401 -0.013101 0
-0.003523 -0.008776 0
-0.001519 -0.004976 0
-0.000362 -0.001962 0
0.000000 0.000000 0
0.000000 -0.000000 0
-0.000777 0.006667 0
-0.002883 0.013079 0
-0.006116 0.019052 0
-0.010295 0.024461 0
-0.015259 0.029229 0
-0.020866 0.033317 0
-0.026987 0.036715 0
-0.033509 0.039431 0
-0.040329 0.041486 0
-0.047351 0.042906 0
-0.054489 0.043718 0
-0.061662 0.043945 0
-0.068790 0.043611 0
-0.075799 0.042730 0
-0.082614 0.041317 0
-0.089165 0.039382 0
-0.095379 0.036932 0
-0.101186 0.033977 0
-0.106515 0.030531 0
-0.111298 0.026610 0
-0.115468 0.022239 0
-0.118961 0.017452 0
-0.121717 0.012293 0
-0.123679 0.006818 0
-0.124799 0.001093 0
-0.125036 -0.004800 0
-0.124357 -0.010772 0
-0.122744 -0.016717 0
-0.120188 -0.022525 0
-0.116700 -0.028074 0
-0.112303 -0.033243 0
-0.107043 -0.037904 0
-0.100982 -0.041937 0
-0.094206 -0.045227 0
-0.086817 -0.047675 0
-0.078941 -0.049196 0
-0.070717 -0.049732 0
-0.062301 -0.049253 0
-0.053859 -0.047760 0
-0.045561 -0.045290 0
-0.037576 -0.041917 0
-0.030069 -0.037754 0
-0.023189 -0.032949 0
-0.017064 -0.027686 0
-0.011802 -0.022178 0
-0.007478 -0.016666 0
-0.004138 -0.011410 0
-0.001795 -0.006689 0
-0.000431 -0.002789 0
0.000000 0.000000 0
0.000000 -0.000000 0
-0.000848 0.008174 0
-0.003139 0.015867 0
-0.006647 0.022918 0
-0.011170 0.029223 0
-0.016528 0.034727 0
-0.022565 0.039408 0
-0.029140 0.043274 0
-0.036130 0.046345 0
-0.043427 0.048654 0
-0.050931 0.050234 0
-0.058551 0.051119 0
-0.066205 0.051340 0
-0.073811 0.050921 0
-0.081293 0.049882 0
-0.088579 0.048236 0
-0.095593 0.045995 0
-0.102265 0.043168 0
-0.108521 0.039766 0
-0.114291 0.035800 0
-0.119504 0.031292 0
-0.124089 0.026266 0
-0.127979 0.020760 0
-0.131110 0.014821 0
-0.133419 0.008510 0
-0.134851 0.001902 0
-0.135358 -0.004915 0
-0.134900 -0.011839 0
-0.133448 -0.018755 0
-0.130986 -0.025536 0
-0.127514 -0.032047 0
-0.123048 -0.038145 0
-0.117625 -0.043684 0
-0.111303 -0.048523 0
-0.104162 -0.052526 0
-0.096308 -0.055570 0
-0.087866 -0.057553 0
-0.078986 -0.058399 0
-0.069832 -0.058062 0
-0.060587 -0.056534 0
-0.051440 -0.053850 0
-0.042584 -0.050085 0
-0.034205 -0.045362 0
-0.026479 -0.039846 0
-0.019561 -0.033741 0
-0.013582 -0.027291 0
-0.008641 -0.020765 0
-0.004801 -0.014459 0
-0.002091 -0.008683 0
-0.000505 -0.003757 0
0.000000 0.000000 0
0.000000 -0.000000 0
-0.000913 0.009806 0
-0.003376 0.018878 0
-0.007140 0.027083 0
-0.011981 0.034342 0
-0.017706 0.040623 0
-0.024143 0.045928 0
-0.031143 0.050281 0
-0.038573 0.053719 0
-0.046319 0.056287 0
-0.054277 0.058031 0
-0.062355 0.058991 0
-0.070466 0.059204 0
-0.078530 0.058699 0
-0.086471 0.057498 0
-0.094214 0.055617 0
-0.101686 0.053068 0
-0.108815 0.049860 0
-0.115527 0.046004 0
-0.121750 0.041514 0
-0.127412 0.036408 0
-0.132440 0.030715 0
-0.136762 0.024473 0
-0.140310 0.017733 0
-0.143016 0.010559 0
-0.144818 0.003033 0
-0.145659 -0.004751 0
-0.145490 -0.012681 0
-0.144270 -0.020631 0
-0.141975 -0.028459 0
-0.138591 -0.036013 0
-0.134125 -0.043132 0
-0.128603 -0.049649 0
-0.122076 -0.055399 0
-0.114618 -0.060222 0
-0.106331 -0.063971 0
-0.097343 -0.066518 0
-0.087808 -0.067767 0
-0.077905 -0.067652 0
-0.067830 -0.066152 0
-0.057793 -0.063293 0
-0.048011 -0.059153 0
-0.038699 -0.053859 0
-0.030062 -0.047593 0
-0.022284 -0.040582 0
-0.015526 -0.033099 0
-0.009910 -0.025447 0
-0.005525 -0.017959 0
-0.002415 -0.010985 0
-0.000585 -0.004880 0
0.000000 0.000000 0
0.000000 -0.000000 0
-0.000973 0.011550 0
-0.003592 0.022094 0
-0.007589 0.031523 0
-0.012723 0.039790 0
-0.018785 0.046888 0
-0.025590 0.052844 0
-0.032981 0.057704 0
-0.040818 0.061522 0
-0.048981 0.064358 0
-0.057364 0.066270 0
-0.065870 0.067308 0
-0.074414 0.067515 0
-0.082914 0.066926 0
-0.091294 0.065566 0
-0.099480 0.063451 0
-0.107399 0.060596 0
-0.114980 0.057009 0
-0.122150 0.052701 0
-0.128836 0.047685 0
-0.134963 0.041981 0
-0.140458 0.035616 0
-0.145246 0.028630 0
-0.149252 0.021075 0
-0.152405 0.013019 0
-0.154634 0.004545 0
-0.155872 -0.004243 0
-0.156061 -0.013228 0
-0.155150 -0.022270 0
-0.153100 -0.031216 0
-0.149884 -0.039897 0
-0.145496 -0.048132 0
-0.139950 -0.055733 0
-0.133285 -0.062509 0
-0.125567 -0.068271 0
-0.116893 -0.072845 0
-0.107390 -0.076075 0
-0.097216 -0.077836 0
-0.086560 -0.078040 0
-0.075633 -0.076647 0
-0.064668 -0.073669 0
-0.053909 -0.069179 0
-0.043601 -0.063311 0
-0.033982 -0.056260 0
-0.025272 -0.048278 0
-0.017662 -0.039665 0
-0.011309 -0.030766 0
-0.006323 -0.021954 0
-0.002773 -0.013623 0
-0.000675 -0.006172 0
0.000000 -0.000000 0
0.000000 0.000000 0
-0.001026 0.013398 0
-0.003786 0.025495 0
-0.007992 0.036213 0
-0.013389 0.045537 0
-0.019754 0.053490 0
-0.026893 0.060124 0
-0.034639 0.065509 0
-0.042847 0.069720 0
-0.051392 0.072833 0
-0.060164 0.074919 0
-0.069067 0.076041 0
-0.078012 0.076248 0
-0.086920 0.075579 0
-0.095716 0.074064 0
-0.104325 0.071723 0
-0.112677 0.068569 0
-0.120702 0.064611 0
-0.128326 0.059860 0
-0.135477 0.054327 0
-0.142081 0.048030 0
-0.148063 0.040997 0
-0.153343 0.033267 0
-0.157845 0.024892 0
-0.161489 0.015940 0
-0.164199 0.006500 0
-0.165898 -0.003323 0
-0.166517 -0.013403 0
-0.165992 -0.023593 0
-0.164269 -0.033725 0
-0.161308 -0.043617 0
-0.157086 -0.053065 0
-0.151602 -0.061860 0
-0.144880 -0.069782 0
-0.136975 -0.076614 0
-0.127975 -0.082148 0
-0.118003 -0.086195 0
-0.107219 -0.088597 0
-0.095818 -0.089235 0
-0.084030 -0.088044 0
-0.072107 -0.085018 0
-0.060322 -0.080220 0
-0.048955 -0.073786 0
-0.038282 -0.065922 0
-0.028562 -0.056902 0
-0.020024 -0.047062 0
-0.012859 -0.036786 0
-0.007212 -0.026495 0
-0.003172 -0.016634 0
-0.000775 -0.007653 0
0.000000 -0.000000 0
0.000000 0.000000 0
-0.001073 0.015337 0
-0.003956 0.029059 0
-0.008345 0.041126 0
-0.013973 0.051552 0
-0.020606 0.060392 0
-0.028041 0.067730 0
-0.036102 0.073658 0
-0.044641 0.078275 0
-0.053528 0.081675 0
-0.062651 0.083944 0
-0.071912 0.085156 0
-0.081224 0.085369 0
-0.090508 0.084630 0
-0.099688 0.082970 0
-0.108695 0.080413 0
-0.117458 0.076972 0
-0.125908 0.072657 0
-0.133976 0.067477 0
-0.141589 0.061441 0
-0.148673 0.054567 0
-0.155151 0.046878 0
-0.160944 0.038412 0
-0.165970 0.029221 0
-0.170145 0.019372 0
-0.173385 0.008954 0
-0.175604 -0.001925 0
-0.176722 -0.013134 0
-0.176660 -0.024518 0
-0.175351 -0.035900 0
-0.172737 -0.047080 0
-0.168777 -0.057839 0
-0.163452 -0.067939 0
-0.156769 -0.077135 0
-0.148766 -0.085176 0
-0.139519 -0.091817 0
-0.129143 -0.096832 0
-0.117796 -0.100021 0
-0.105679 -0.101229 0
-0.093034 -0.100358 0
-0.080135 -0.097376 0
-0.067285 -0.092330 0
-0.054802 -0.085351 0
-0.043002 -0.076654 0
-0.032189 -0.066536 0
-0.022639 -0.055368 0
-0.014584 -0.043578 0
-0.008204 -0.031642 0
-0.003620 -0.020060 0
-0.000887 -0.009344 0
0.000000 -0.000000 0
0.000000 0.000000 0
-0.001112 0.017354 0
-0.004099 0.032766 0
-0.008644 0.046231 0
-0.014470 0.057798 0
-0.021332 0.067557 0
-0.029021 0.075620 0
-0.037355 0.082109 0
-0.046181 0.087145 0
-0.055365 0.090843 0
-0.064796 0.093304 0
-0.074373 0.094614 0
-0.084010 0.094843 0
-0.093629 0.094043 0
-0.103158 0.092252 0
-0.112528 0.089493 0
-0.121671 0.085782 0
-0.130522 0.081129 0
-0.139013 0.075540 0
-0.147073 0.069023 0
-0.154629 0.061592 0
-0.161604 0.053269 0
-0.167919 0.044086 0
-0.173488 0.034093 0
-0.178223 0.023355 0
-0.182033 0.011959 0
-0.184824 0.000014 0
-0.186504 -0.012347 0
-0.186982 -0.024963 0
-0.186173 -0.037649 0
-0.184002 -0.050191 0
-0.180408 -0.062350 0
-0.175351 -0.073868 0
-0.168816 -0.084468 0
-0.160823 -0.093863 0
-0.151429 -0.101771 0
-0.140737 -0.107918 0
-0.128898 -0.112060 0
-0.116114 -0.113998 0
-0.102636 -0.113588 0
-0.088760 -0.110766 0
-0.074818 -0.105554 0
-0.061168 -0.098070 0
-0.048172 -0.088534 0
-0.036186 -0.077265 0
-0.025536 -0.064667 0
-0.016504 -0.051221 0
-0.009314 -0.037459 0
-0.004123 -0.023950 0
-0.001015 -0.011272 0
0.000000 -0.000000 0
0.000000 0.000000 0
-0.001144 0.019436 0
-0.004214 0.036591 0
-0.008887 0.051497 0
-0.014874 0.064240 0
-0.021925 0.074944 0
-0.029823 0.083753 0
-0.038384 0.090818 0
-0.047449 0.096285 0
-0.056882 0.100290 0
-0.066571 0.102952 0
-0.076415 0.104370 0
-0.086330 0.104626 0
-0.096238 0.103778 0
-0.106070 0.101869 0