# vtk DataFile Version 2.0
generated by CFD-lab course output (written by Tobias Neckel) 
ASCII

DATASET STRUCTURED_GRID
DIMENSIONS  51 51 1 
POINTS 2601 float

0.000000 0.000000 0
0.020000 0.000000 0
0.040000 0.000000 0
0.060000 0.000000 0
0.080000 0.000000 0
0.100000 0.000000 0
0.120000 0.000000 0
0.140000 0.000000 0
0.160000 0.000000 0
0.180000 0.000000 0
0.200000 0.000000 0
0.220000 0.000000 0
0.240000 0.000000 0
0.260000 0.000000 0
0.280000 0.000000 0
0.300000 0.000000 0
0.320000 0.000000 0
0.340000 0.000000 0
0.360000 0.000000 0
0.380000 0.000000 0
0.400000 0.000000 0
0.420000 0.000000 0
0.440000 0.000000 0
0.460000 0.000000 0
0.480000 0.000000 0
0.500000 0.000000 0
0.520000 0.000000 0
0.540000 0.000000 0
0.560000 0.000000 0
0.580000 0.000000 0
0.600000 0.000000 0
0.620000 0.000000 0
0.640000 0.000000 0
0.660000 0.000000 0
0.680000 0.000000 0
0.700000 0.000000 0
0.720000 0.000000 0
0.740000 0.000000 0
0.760000 0.000000 0
0.780000 0.000000 0
0.800000 0.000000 0
0.820000 0.000000 0
0.840000 0.000000 0
0.860000 0.000000 0
0.880000 0.000000 0
0.900000 0.000000 0
0.920000 0.000000 0
0.940000 0.000000 0
0.960000 0.000000 0
0.980000 0.000000 0
1.000000 0.000000 0
0.000000 0.020000 0
0.020000 0.020000 0
0.040000 0.020000 0
0.060000 0.020000 0
0.080000 0.020000 0
0.100000 0.020000 0
0.120000 0.020000 0
0.140000 0.020000 0
0.160000 0.020000 0
0.180000 0.020000 0
0.200000 0.020000 0
0.220000 0.020000 0
0.240000 0.020000 0
0.260000 0.020000 0
0.280000 0.020000 0
0.300000 0.020000 0
0.320000 0.020000 0
0.340000 0.020000 0
0.360000 0.020000 0
0.380000 0.020000 0
0.400000 0.020000 0
0.420000 0.020000 0
0.440000 0.020000 0
0.460000 0.020000 0
0.480000 0.020000 0
0.500000 0.020000 0
0.520000 0.020000 0
0.540000 0.020000 0
0.560000 0.020000 0
0.580000 0.020000 0
0.600000 0.020000 0
0.620000 0.020000 0
0.640000 0.020000 0
0.660000 0.020000 0
0.680000 0.020000 0
0.700000 0.020000 0
0.720000 0.020000 0
0.740000 0.020000 0
0.760000 0.020000 0
0.780000 0.020000 0
0.800000 0.020000 0
0.820000 0.020000 0
0.840000 0.020000 0
0.860000 0.020000 0
0.880000 0.020000 0
0.900000 0.020000 0
0.920000 0.020000 0
0.940000 0.020000 0
0.960000 0.020000 0
0.980000 0.020000 0
1.000000 0.020000 0
0.000000 0.040000 0
0.020000 0.040000 0
0.040000 0.040000 0
0.060000 0.040000 0
0.080000 0.040000 0
0.100000 0.040000 0
0.120000 0.040000 0
0.140000 0.040000 0
0.160000 0.040000 0
0.180000 0.040000 0
0.200000 0.040000 0
0.220000 0.040000 0
0.240000 0.040000 0
0.260000 0.040000 0
0.280000 0.040000 0
0.300000 0.040000 0
0.320000 0.040000 0
0.340000 0.040000 0
0.360000 0.040000 0
0.380000 0.040000 0
0.400000 0.040000 0
0.420000 0.040000 0
0.440000 0.040000 0
0.460000 0.040000 0
0.480000 0.040000 0
0.500000 0.040000 0
0.520000 0.040000 0
0.540000 0.040000 0
0.560000 0.040000 0
0.580000 0.040000 0
0.600000 0.040000 0
0.620000 0.040000 0
0.640000 0.040000 0
0.660000 0.040000 0
0.680000 0.040000 0
0.700000 0.040000 0
0.720000 0.040000 0
0.740000 0.040000 0
0.760000 0.040000 0
0.780000 0.040000 0
0.800000 0.040000 0
0.820000 0.040000 0
0.840000 0.040000 0
0.860000 0.040000 0
0.880000 0.040000 0
0.900000 0.040000 0
0.920000 0.040000 0
0.940000 0.040000 0
0.960000 0.040000 0
0.980000 0.040000 0
1.000000 0.040000 0
0.000000 0.060000 0
0.020000 0.060000 0
0.040000 0.060000 0
0.060000 0.060000 0
0.080000 0.060000 0
0.100000 0.060000 0
0.120000 0.060000 0
0.140000 0.060000 0
0.160000 0.060000 0
0.180000 0.060000 0
0.200000 0.060000 0
0.220000 0.060000 0
0.240000 0.060000 0
0.260000 0.060000 0
0.280000 0.060000 0
0.300000 0.060000 0
0.320000 0.060000 0
0.340000 0.060000 0
0.360000 0.060000 0
0.380000 0.060000 0
0.400000 0.060000 0
0.420000 0.060000 0
0.440000 0.060000 0
0.460000 0.060000 0
0.480000 0.060000 0
0.500000 0.060000 0
0.520000 0.060000 0
0.540000 0.060000 0
0.560000 0.060000 0
0.580000 0.060000 0
0.600000 0.060000 0
0.620000 0.060000 0
0.640000 0.060000 0
0.660000 0.060000 0
0.680000 0.060000 0
0.700000 0.060000 0
0.720000 0.060000 0
0.740000 0.060000 0
0.760000 0.060000 0
0.780000 0.060000 0
0.800000 0.060000 0
0.820000 0.060000 0
0.840000 0.060000 0
0.860000 0.060000 0
0.880000 0.060000 0
0.900000 0.060000 0
0.920000 0.060000 0
0.940000 0.060000 0
0.960000 0.060000 0
0.980000 0.060000 0
1.000000 0.060000 0
0.000000 0.080000 0
0.020000 0.080000 0
0.040000 0.080000 0
0.060000 0.080000 0
0.080000 0.080000 0
0.100000 0.080000 0
0.120000 0.080000 0
0.140000 0.080000 0
0.160000 0.080000 0
0.180000 0.080000 0
0.200000 0.080000 0
0.220000 0.080000 0
0.240000 0.080000 0
0.260000 0.080000 0
0.280000 0.080000 0
0.300000 0.080000 0
0.320000 0.080000 0
0.340000 0.080000 0
0.360000 0.080000 0
0.380000 0.080000 0
0.400000 0.080000 0
0.420000 0.080000 0
0.440000 0.080000 0
0.460000 0.080000 0
0.480000 0.080000 0
0.500000 0.080000 0
0.520000 0.080000 0
0.540000 0.080000 0
0.560000 0.080000 0
0.580000 0.080000 0
0.600000 0.080000 0
0.620000 0.080000 0
0.640000 0.080000 0
0.660000 0.080000 0
0.680000 0.080000 0
0.700000 0.080000 0
0.720000 0.080000 0
0.740000 0.080000 0
0.760000 0.080000 0
0.780000 0.080000 0
0.800000 0.080000 0
0.820000 0.080000 0
0.840000 0.080000 0
0.860000 0.080000 0
0.880000 0.080000 0
0.900000 0.080000 0
0.920000 0.080000 0
0.940000 0.080000 0
0.960000 0.080000 0
0.980000 0.080000 0
1.000000 0.080000 0
0.000000 0.100000 0
0.020000 0.100000 0
0.040000 0.100000 0
0.060000 0.100000 0
0.080000 0.100000 0
0.100000 0.100000 0
0.120000 0.100000 0
0.140000 0.100000 0
0.160000 0.100000 0
0.180000 0.100000 0
0.200000 0.100000 0
0.220000 0.100000 0
0.240000 0.100000 0
0.260000 0.100000 0
0.280000 0.100000 0
0.300000 0.100000 0
0.320000 0.100000 0
0.340000 0.100000 0
0.360000 0.100000 0
0.380000 0.100000 0
0.400000 0.100000 0
0.420000 0.100000 0
0.440000 0.100000 0
0.460000 0.100000 0
0.480000 0.100000 0
0.500000 0.100000 0
0.520000 0.100000 0
0.540000 0.100000 0
0.560000 0.100000 0
0.580000 0.100000 0
0.600000 0.100000 0
0.620000 0.100000 0
0.640000 0.100000 0
0.660000 0.100000 0
0.680000 0.100000 0
0.700000 0.100000 0
0.720000 0.100000 0
0.740000 0.100000 0
0.760000 0.100000 0
0.780000 0.100000 0
0.800000 0.100000 0
0.820000 0.100000 0
0.840000 0.100000 0
0.860000 0.100000 0
0.880000 0.100000 0
0.900000 0.100000 0
0.920000 0.100000 0
0.940000 0.100000 0
0.960000 0.100000 0
0.980000 0.100000 0
1.000000 0.100000 0
0.000000 0.120000 0
0.020000 0.120000 0
0.040000 0.120000 0
0.060000 0.120000 0
0.080000 0.120000 0
0.100000 0.120000 0
0.120000 0.120000 0
0.140000 0.120000 0
0.160000 0.120000 0
0.180000 0.120000 0
0.200000 0.120000 0
0.220000 0.120000 0
0.240000 0.120000 0
0.260000 0.120000 0
0.280000 0.120000 0
0.300000 0.120000 0
0.320000 0.120000 0
0.340000 0.120000 0
0.360000 0.120000 0
0.380000 0.120000 0
0.400000 0.120000 0
0.420000 0.120000 0
0.440000 0.120000 0
0.460000 0.120000 0
0.480000 0.120000 0
0.500000 0.120000 0
0.520000 0.120000 0
0.540000 0.120000 0
0.560000 0.120000 0
0.580000 0.120000 0
0.600000 0.120000 0
0.620000 0.120000 0
0.640000 0.120000 0
0.660000 0.120000 0
0.680000 0.120000 0
0.700000 0.120000 0
0.720000 0.120000 0
0.740000 0.120000 0
0.760000 0.120000 0
0.780000 0.120000 0
0.800000 0.120000 0
0.820000 0.120000 0
0.840000 0.120000 0
0.860000 0.120000 0
0.880000 0.120000 0
0.900000 0.120000 0
0.920000 0.120000 0
0.940000 0.120000 0
0.960000 0.120000 0
0.980000 0.120000 0
1.000000 0.120000 0
0.000000 0.140000 0
0.020000 0.140000 0
0.040000 0.140000 0
0.060000 0.140000 0
0.080000 0.140000 0
0.100000 0.140000 0
0.120000 0.140000 0
0.140000 0.140000 0
0.160000 0.140000 0
0.180000 0.140000 0
0.200000 0.140000 0
0.220000 0.140000 0
0.240000 0.140000 0
0.260000 0.140000 0
0.280000 0.140000 0
0.300000 0.140000 0
0.320000 0.140000 0
0.340000 0.140000 0
0.360000 0.140000 0
0.380000 0.140000 0
0.400000 0.140000 0
0.420000 0.140000 0
0.440000 0.140000 0
0.460000 0.140000 0
0.480000 0.140000 0
0.500000 0.140000 0
0.520000 0.140000 0
0.540000 0.140000 0
0.560000 0.140000 0
0.580000 0.140000 0
0.600000 0.140000 0
0.620000 0.140000 0
0.640000 0.140000 0
0.660000 0.140000 0
0.680000 0.140000 0
0.700000 0.140000 0
0.720000 0.140000 0
0.740000 0.140000 0
0.760000 0.140000 0
0.780000 0.140000 0
0.800000 0.140000 0
0.820000 0.140000 0
0.840000 0.140000 0
0.860000 0.140000 0
0.880000 0.140000 0
0.900000 0.140000 0
0.920000 0.140000 0
0.940000 0.140000 0
0.960000 0.140000 0
0.980000 0.140000 0
1.000000 0.140000 0
0.000000 0.160000 0
0.020000 0.160000 0
0.040000 0.160000 0
0.060000 0.160000 0
0.080000 0.160000 0
0.100000 0.160000 0
0.120000 0.160000 0
0.140000 0.160000 0
0.160000 0.160000 0
0.180000 0.160000 0
0.200000 0.160000 0
0.220000 0.160000 0
0.240000 0.160000 0
0.260000 0.160000 0
0.280000 0.160000 0
0.300000 0.160000 0
0.320000 0.160000 0
0.340000 0.160000 0
0.360000 0.160000 0
0.380000 0.160000 0
0.400000 0.160000 0
0.420000 0.160000 0
0.440000 0.160000 0
0.460000 0.160000 0
0.480000 0.160000 0
0.500000 0.160000 0
0.520000 0.160000 0
0.540000 0.160000 0
0.560000 0.160000 0
0.580000 0.160000 0
0.600000 0.160000 0
0.620000 0.160000 0
0.640000 0.160000 0
0.660000 0.160000 0
0.680000 0.160000 0
0.700000 0.160000 0
0.720000 0.160000 0
0.740000 0.160000 0
0.760000 0.160000 0
0.780000 0.160000 0
0.800000 0.160000 0
0.820000 0.160000 0
0.840000 0.160000 0
0.860000 0.160000 0
0.880000 0.160000 0
0.900000 0.160000 0
0.920000 0.160000 0
0.940000 0.160000 0
0.960000 0.160000 0
0.980000 0.160000 0
1.000000 0.160000 0
0.000000 0.180000 0
0.020000 0.180000 0
0.040000 0.180000 0
0.060000 0.180000 0
0.080000 0.180000 0
0.100000 0.180000 0
0.120000 0.180000 0
0.140000 0.180000 0
0.160000 0.180000 0
0.180000 0.180000 0
0.200000 0.180000 0
0.220000 0.180000 0
0.240000 0.180000 0
0.260000 0.180000 0
0.280000 0.180000 0
0.300000 0.180000 0
0.320000 0.180000 0
0.340000 0.180000 0
0.360000 0.180000 0
0.380000 0.180000 0
0.400000 0.180000 0
0.420000 0.180000 0
0.440000 0.180000 0
0.460000 0.180000 0
0.480000 0.180000 0
0.500000 0.180000 0
0.520000 0.180000 0
0.540000 0.180000 0
0.560000 0.180000 0
0.580000 0.180000 0
0.600000 0.180000 0
0.620000 0.180000 0
[...]
POINT_DATA 2601 

VECTORS velocity float
0.000000 0.000000 0
0.000000 0.000000 0
-0.000000 0.000000 0
-0.000000 0.000000 0
-0.000000 0.000000 0
-0.000000 0.000000 0
-0.000000 0.000000 0
0.000000 0.000000 0
0.000000 0.000000 0
0.000000 0.000000 0
0.000000 0.000000 0
0.000000 0.000000 0
-0.000000 0.000000 0
-0.000000 0.000000 0
-0.000000 0.000000 0
-0.000000 0.000000 0
0.000000 0.000000 0
0.000000 0.000000 0
0.000000 0.000000 0
-0.000000 0.000000 0
-0.000000 0.000000 0
-0.000000 0.000000 0
-0.000000 0.000000 0
-0.000000 0.000000 0
0.000000 0.000000 0
0.000000 0.000000 0
0.000000 0.000000 0
-0.000000 0.000000 0
-0.000000 0.000000 0
-0.000000 0.000000 0
-0.000000 0.000000 0
-0.000000 0.000000 0
0.000000 0.000000 0
0.000000 0.000000 0
0.000000 0.000000 0
0.000000 0.000000 0
0.000000 0.000000 0
-0.000000 0.000000 0
-0.000000 0.000000 0
-0.000000 0.000000 0
-0.000000 0.000000 0
-0.000000 0.000000 0
-0.000000 0.000000 0
0.000000 0.000000 0
0.000000 0.000000 0
0.000000 0.000000 0
0.000000 0.000000 0
0.000000 0.000000 0
0.000000 0.000000 0
0.000000 0.000000 0
0.000000 0.000000 0
0.000000 0.000000 0
0.000061 -0.000059 0
0.000082 -0.000023 0
-0.000014 0.000055 0
-0.000256 0.000143 0
-0.000646 0.000228 0
-0.001172 0.000302 0
-0.001816 0.000363 0
-0.002558 0.000412 0
-0.003377 0.000450 0
-0.004255 0.000476 0
-0.005174 0.000494 0
-0.006116 0.000502 0
-0.007067 0.000504 0
-0.008013 0.000499 0
-0.008941 0.000487 0
-0.009838 0.000468 0
-0.010692 0.000443 0
-0.011491 0.000411 0
-0.012221 0.000372 0
-0.012870 0.000326 0
-0.013426 0.000275 0
-0.013878 0.000216 0
-0.014214 0.000152 0
-0.014424 0.000082 0
-0.014500 0.000009 0
-0.014436 -0.000068 0
-0.014228 -0.000147 0
-0.013875 -0.000225 0
-0.013380 -0.000302 0
-0.012750 -0.000374 0
-0.011992 -0.000440 0
-0.011122 -0.000497 0
-0.010156 -0.000544 0
-0.009115 -0.000580 0
-0.008021 -0.000601 0
-0.006901 -0.000608 0
-0.005781 -0.000599 0
-0.004689 -0.000575 0
-0.003653 -0.000535 0
-0.002697 -0.000482 0
-0.001847 -0.000416 0
-0.001122 -0.000339 0
-0.000538 -0.000255 0
-0.000105 -0.000167 0
0.000174 -0.000079 0
0.000305 0.000002 0
0.000307 0.000067 0
0.000213 0.000100 0
0.000082 0.000082 0
0.000000 0.000000 0
0.000000 -0.000000 0
0.000024 -0.000082 0
-0.000075 0.000074 0
-0.000386 0.000337 0
-0.000945 0.000631 0
-0.001755 0.000916 0
-0.002798 0.001171 0
-0.004048 0.001387 0
-0.005470 0.001562 0
-0.007031 0.001698 0
-0.008696 0.001796 0
-0.010434 0.001860 0
-0.012215 0.001893 0
-0.014010 0.001897 0
-0.015794 0.001874 0
-0.017541 0.001826 0
-0.019227 0.001752 0
-0.020828 0.001652 0
-0.022321 0.001528 0
-0.023681 0.001379 0
-0.024886 0.001206 0
-0.025914 0.001008 0
-0.026743 0.000787 0
-0.027354 0.000546 0
-0.027729 0.000286 0
-0.027854 0.000012 0
-0.027720 -0.000272 0
-0.027319 -0.000561 0
-0.026653 -0.000847 0
-0.025726 -0.001126 0
-0.024550 -0.001388 0
-0.023143 -0.001627 0
-0.021531 -0.001836 0
-0.019744 -0.002007 0
-0.017818 -0.002135 0
-0.015796 -0.002214 0
-0.013723 -0.002240 0
-0.011648 -0.002212 0
-0.009618 -0.002129 0
-0.007683 -0.001992 0
-0.005888 -0.001806 0
-0.004276 -0.001576 0
-0.002882 -0.001309 0
-0.001733 -0.001017 0
-0.000847 -0.000712 0
-0.000229 -0.000410 0
0.000134 -0.000132 0
0.000269 0.000092 0
0.000232 0.000224 0
0.000103 0.000213 0
0.000000 -0.000000 0
0.000000 -0.000000 0
-0.000057 0.000015 0
-0.000350 0.000386 0
-0.000949 0.000924 0
-0.001880 0.001512 0
-0.003140 0.002082 0
-0.004707 0.002596 0
-0.006544 0.003036 0
-0.008609 0.003395 0
-0.010858 0.003675 0
-0.013246 0.003879 0
-0.015730 0.004012 0
-0.018269 0.004079 0
-0.020825 0.004083 0
-0.023360 0.004030 0
-0.025839 0.003920 0
-0.028227 0.003755 0
-0.030490 0.003536 0
-0.032594 0.003263 0
-0.034507 0.002937 0
-0.036197 0.002560 0
-0.037633 0.002131 0
-0.038786 0.001656 0
-0.039629 0.001138 0
-0.040141 0.000583 0
-0.040301 -0.000001 0
-0.040098 -0.000603 0
-0.039525 -0.001214 0
-0.038582 -0.001819 0
-0.037277 -0.002404 0
-0.035628 -0.002956 0
-0.033660 -0.003459 0
-0.031406 -0.003897 0
-0.028910 -0.004257 0
-0.026220 -0.004527 0
-0.023394 -0.004696 0
-0.020492 -0.004756 0
-0.017579 -0.004704 0
-0.014721 -0.004539 0
-0.011984 -0.004265 0
-0.009429 -0.003889 0
-0.007112 -0.003422 0
-0.005081 -0.002882 0
-0.003374 -0.002290 0
-0.002013 -0.001672 0
-0.001007 -0.001060 0
-0.000343 -0.000496 0
0.000014 -0.000031 0
0.000124 0.000267 0
0.000077 0.000314 0
0.000000 -0.000000 0
0.000000 -0.000000 0
-0.000154 0.000268 0
-0.000677 0.000966 0
-0.001605 0.001867 0
-0.002943 0.002823 0
-0.004677 0.003744 0
-0.006774 0.004575 0
-0.009190 0.005289 0
-0.011874 0.005876 0
-0.014775 0.006334 0
-0.017839 0.006668 0
-0.021014 0.006883 0
-0.024251 0.006988 0
-0.027503 0.006988 0
-0.030722 0.006888 0
-0.033863 0.006692 0
-0.036885 0.006402 0
-0.039743 0.006020 0
-0.042397 0.005546 0
-0.044804 0.004982 0
-0.046927 0.004331 0
-0.048726 0.003596 0
-0.050166 0.002784 0
-0.051217 0.001901 0
-0.051849 0.000958 0
-0.052043 -0.000030 0
-0.051782 -0.001048 0
-0.051059 -0.002077 0
-0.049876 -0.003095 0
-0.048244 -0.004079 0
-0.046183 -0.005006 0
-0.043725 -0.005849 0
-0.040910 -0.006586 0
-0.037791 -0.007194 0
-0.034428 -0.007651 0
-0.030888 -0.007942 0
-0.027245 -0.008055 0
-0.023579 -0.007982 0
-0.019967 -0.007724 0
-0.016490 -0.007285 0
-0.013223 -0.006678 0
-0.010234 -0.005923 0
-0.007581 -0.005047 0
-0.005312 -0.004085 0
-0.003456 -0.003079 0
-0.002024 -0.002080 0
-0.001008 -0.001153 0
-0.000372 -0.000374 0
-0.000058 0.000162 0
0.000026 0.000337 0
0.000000 -0.000000 0
0.000000 -0.000000 0
-0.000255 0.000692 0
-0.001022 0.001837 0
-0.002297 0.003191 0
-0.004062 0.004586 0
-0.006283 0.005913 0
-0.008914 0.007108 0
-0.011903 0.008135 0
-0.015190 0.008980 0
-0.018716 0.009639 0
-0.022422 0.010119 0
-0.026247 0.010425 0
-0.030135 0.010567 0
-0.034032 0.010553 0
-0.037882 0.010390 0
-0.041634 0.010083 0
-0.045237 0.009635 0
-0.048641 0.009048 0
-0.051798 0.008324 0
-0.054658 0.007467 0
-0.057177 0.006481 0
-0.059311 0.005371 0
-0.061019 0.004147 0
-0.062264 0.002821 0
-0.063016 0.001409 0
-0.063250 -0.000068 0
-0.062949 -0.001587 0
-0.062105 -0.003119 0
-0.060720 -0.004634 0
-0.058807 -0.006098 0
-0.056388 -0.007476 0
-0.053500 -0.008731 0
-0.050190 -0.009830 0
-0.046516 -0.010740 0
-0.042546 -0.011430 0
-0.038358 -0.011878 0
-0.034036 -0.012066 0
-0.029671 -0.011983 0
-0.025352 -0.011628 0
-0.021173 -0.011009 0
-0.017219 -0.010145 0
-0.013570 -0.009064 0
-0.010297 -0.007804 0
-0.007454 -0.006416 0
-0.005079 -0.004959 0
-0.003192 -0.003508 0
-0.001786 -0.002148 0
-0.000833 -0.000982 0
-0.000277 -0.000131 0
-0.000036 0.000256 0
0.000000 0.000000 0
0.000000 -0.000000 0
-0.000353 0.001289 0
-0.001366 0.003010 0
-0.002996 0.004908 0
-0.005193 0.006809 0
-0.007905 0.008595 0
-0.011070 0.010193 0
-0.014624 0.011564 0
-0.018500 0.012689 0
-0.022631 0.013566 0
-0.026950 0.014199 0
-0.031394 0.014598 0
-0.035897 0.014773 0
-0.040400 0.014735 0
-0.044841 0.014491 0
-0.049164 0.014047 0
-0.053310 0.013409 0
-0.057224 0.012580 0
-0.060851 0.011563 0
-0.064137 0.010362 0
-0.067032 0.008984 0
-0.069485 0.007438 0
-0.071453 0.005737 0
-0.072894 0.003898 0
-0.073774 0.001944 0
-0.074066 -0.000097 0
-0.073751 -0.002193 0
-0.072819 -0.004306 0
-0.071271 -0.006394 0
-0.069121 -0.008412 0
-0.066395 -0.010312 0
-0.063130 -0.012048 0
-0.059377 -0.013571 0
-0.055201 -0.014837 0
-0.050675 -0.015809 0
-0.045886 -0.016452 0
-0.040926 -0.016742 0
-0.035895 -0.016666 0
-0.030895 -0.016222 0
-0.026029 -0.015419 0
-0.021395 -0.014280 0
-0.017086 -0.012845 0
-0.013180 -0.011164 0
-0.009745 -0.009302 0
-0.006828 -0.007341 0
-0.004456 -0.005374 0
-0.002631 -0.003512 0
-0.001333 -0.001883 0
-0.000514 -0.000635 0
-0.000101 0.000060 0
0.000000 0.000000 0
0.000000 -0.000000 0
-0.000448 0.002058 0
-0.001702 0.004481 0
-0.003682 0.007019 0
-0.006310 0.009495 0
-0.009508 0.011789 0
-0.013201 0.013826 0
-0.017310 0.015565 0
-0.021761 0.016987 0
-0.026478 0.018091 0
-0.031390 0.018882 0
-0.036425 0.019372 0
-0.041515 0.019573 0
-0.046593 0.019497 0
-0.051596 0.019155 0
-0.056459 0.018552 0
-0.061121 0.017695 0
-0.065520 0.016589 0
-0.069598 0.015238 0
-0.073295 0.013648 0
-0.076555 0.011829 0
-0.079326 0.009792 0
-0.081558 0.007556 0
-0.083207 0.005143 0
-0.084234 0.002581 0
-0.084610 -0.000092 0
-0.084312 -0.002834 0
-0.083330 -0.005599 0
-0.081662 -0.008331 0
-0.079322 -0.010974 0
-0.076336 -0.013467 0
-0.072741 -0.015749 0
-0.068593 -0.017759 0
-0.063958 -0.019442 0
-0.058915 -0.020745 0
-0.053557 -0.021627 0
-0.047984 -0.022057 0
-0.042305 -0.022013 0
-0.036632 -0.021494 0
-0.031080 -0.020509 0
-0.025759 -0.019089 0
-0.020773 -0.017279 0
-0.016215 -0.015145 0
-0.012162 -0.012768 0
-0.008675 -0.010249 0
-0.005790 -0.007705 0
-0.003521 -0.005270 0
-0.001856 -0.003099 0
-0.000758 -0.001364 0
-0.000166 -0.000258 0
0.000000 -0.000000 0
0.000000 0.000000 0
-0.000539 0.002993 0
-0.002026 0.006244 0
-0.004347 0.009515 0
-0.007395 0.012635 0
-0.011071 0.015485 0
-0.015279 0.017995 0
-0.019932 0.020124 0
-0.024942 0.021858 0
-0.030227 0.023195 0
-0.035710 0.024145 0
-0.041314 0.024722 0
-0.046967 0.024941 0
-0.052597 0.024816 0
-0.058138 0.024357 0
-0.063520 0.023573 0
-0.068678 0.022471 0
-0.073548 0.021057 0
-0.078065 0.019337 0
-0.082168 0.017319 0
-0.085795 0.015015 0
-0.088891 0.012441 0
-0.091402 0.009618 0
-0.093279 0.006574 0
-0.094481 0.003348 0
-0.094975 -0.000019 0
-0.094734 -0.003473 0
-0.093744 -0.006956 0
-0.092003 -0.010401 0
-0.089521 -0.013739 0
-0.086322 -0.016893 0
-0.082445 -0.019790 0
-0.077943 -0.022354 0
-0.072886 -0.024515 0
-0.067358 -0.026210 0
-0.061453 -0.027383 0
-0.055282 -0.027994 0
-0.048961 -0.028018 0
-0.042612 -0.027446 0
-0.036362 -0.026292 0
-0.030335 -0.024588 0
-0.024647 -0.022389 0
-0.019406 -0.019774 0
-0.014704 -0.016842 0
-0.010614 -0.013713 0
-0.007186 -0.010528 0
-0.004447 -0.007446 0
-0.002396 -0.004646 0
-0.001007 -0.002325 0
-0.000232 -0.000698 0
0.000000 -0.000000 0
0.000000 0.000000 0
-0.000625 0.004085 0
-0.002336 0.008289 0
-0.004985 0.012387 0
-0.008440 0.016217 0
-0.012577 0.019672 0
-0.017287 0.022687 0
-0.022465 0.025227 0
-0.028017 0.027283 0
-0.033852 0.028859 0
-0.039886 0.029968 0
-0.046038 0.030628 0
-0.052233 0.030856 0
-0.058396 0.030668 0
-0.064455 0.030077 0
-0.070341 0.029093 0
-0.075983 0.027723 0
-0.081315 0.025975 0
-0.086269 0.023857 0
-0.090779 0.021378 0
-0.094783 0.018552 0
-0.098219 0.015399 0
-0.101030 0.011944 0
-0.103165 0.008222 0
-0.104578 0.004277 0
-0.105230 0.000161 0
-0.105091 -0.004065 0
-0.104144 -0.008329 0
-0.102380 -0.012554 0
-0.099807 -0.016656 0
-0.096446 -0.020544 0
-0.092332 -0.024128 0
-0.087519 -0.027318 0
-0.082076 -0.030027 0
-0.076089 -0.032178 0
-0.069657 -0.033703 0
-0.062896 -0.034549 0
-0.055930 -0.034683 0
-0.048894 -0.034092 0
-0.041926 -0.032787 0
-0.035163 -0.030804 0
-0.028739 -0.028208 0
-0.022778 -0.025088 0
-0.017387 -0.021560 0
-0.012656 -0.017767 0
-0.008651 -0.013872 0
-0.005412 -0.010061 0
-0.002954 -0.006539 0
-0.001262 -0.003528 0
-0.000297 -0.001265 0
0.000000 -0.000000 0
0.000000 0.000000 0
-0.000706 0.005329 0
-0.002630 0.010604 0
-0.005593 0.015618 0
-0.009436 0.020226 0
-0.014017 0.024333 0
-0.019208 0.027884 0
-0.024893 0.030855 0
-0.030965 0.033244 0
-0.037329 0.035063 0
-0.043893 0.036331 0
-0.050574 0.037070 0
-0.057291 0.037299 0
-0.063968 0.037038 0
-0.070531 0.036302 0
-0.076908 0.035101 0
-0.083027 0.033445 0
-0.088817 0.031342 0
-0.094210 0.028801 0
-0.099137 0.025833 0
-0.103531 0.022455 0
-0.107329 0.018688 0
-0.110470 0.014564 0
-0.112898 0.010122 0
-0.114562 0.005412 0
-0.115419 0.000494 0
-0.115435 -0.004559 0
-0.114584 -0.009667 0
-0.112854 -0.014738 0
-0.110246 -0.019673 0
-0.106776 -0.024368 0
-0.102477 -0.028717 0
-0.097397 -0.032610 0
-0.091604 -0.035946 0
-0.085184 -0.038629 0
-0.078242 -0.040576 0
-0.070896 -0.041721 0
-0.063281 -0.042020 0
-0.055540 -0.041451 0
-0.047827 -0.040023 0
-0.040294 -0.037774 0
-0.033093 -0.034775 0
-0.026365 -0.031127 0
-0.020239 -0.026964 0
-0.014822 -0.022449 0
-0.010199 -0.017771 0
-0.006428 -0.013142 0
-0.003537 -0.008796 0
-0.001525 -0.004982 0
-0.000364 -0.001960 0
0.000000 0.000000 0
0.000000 0.000000 0
-0.000783 0.006715 0
-0.002907 0.013175 0
-0.006165 0.019193 0
-0.010377 0.024642 0
-0.015380 0.029445 0
-0.021030 0.033563 0
-0.027197 0.036985 0
-0.033768 0.039719 0
-0.040637 0.041786 0
-0.047709 0.043213 0
-0.054897 0.044026 0
-0.062117 0.044251 0
-0.069292 0.043909 0
-0.076345 0.043017 0
-0.083202 0.041588 0
-0.089791 0.039632 0
-0.096039 0.037158 0
-0.101876 0.034177 0
-0.107231 0.030699 0
-0.112035 0.026745 0
-0.116221 0.022338 0
-0.119725 0.017513 0
-0.122486 0.012314 0
-0.124448 0.006798 0
-0.125562 0.001033 0
-0.125788 -0.004900 0
-0.125094 -0.010910 0
-0.123459 -0.016892 0
-0.120878 -0.022733 0
-0.117359 -0.028313 0
-0.112928 -0.033508 0
-0.107629 -0.038190 0
-0.101528 -0.042239 0
-0.094707 -0.045540 0
-0.087273 -0.047991 0
-0.079349 -0.049511 0
-0.071078 -0.050039 0
-0.062614 -0.049546 0
-0.054126 -0.048033 0
-0.045783 -0.045538 0
-0.037757 -0.042137 0
-0.030212 -0.037942 0
-0.023297 -0.033103 0
-0.017142 -0.027806 0
-0.011855 -0.022265 0
-0.007511 -0.016723 0
-0.004156 -0.011442 0
-0.001803 -0.006701 0
-0.000433 -0.002790 0
0.000000 0.000000 0
0.000000 0.000000 0
-0.000855 0.008235 0
-0.003165 0.015986 0
-0.006701 0.023089 0
-0.011259 0.029442 0
-0.016659 0.034986 0
-0.022741 0.039701 0
-0.029364 0.043593 0
-0.036406 0.046683 0
-0.043755 0.049004 0
-0.051310 0.050591 0
-0.058982 0.051478 0
-0.066685 0.051694 0
-0.074339 0.051266 0
-0.081868 0.050212 0
-0.089195 0.048547 0
-0.096249 0.046282 0
-0.102956 0.043428 0
-0.109243 0.039993 0
-0.115040 0.035992 0
-0.120274 0.031445 0
-0.124875 0.026378 0
-0.128777 0.020828 0
-0.131912 0.014845 0
-0.134222 0.008488 0
-0.135649 0.001834 0
-0.136146 -0.005028 0
-0.135673 -0.011996 0
-0.134200 -0.018953 0
-0.131713 -0.025773 0
-0.128211 -0.032318 0
-0.123711 -0.038446 0
-0.118249 -0.044011 0
-0.111886 -0.048868 0
-0.104701 -0.052884 0
-0.096800 -0.055934 0
-0.088310 -0.057916 0
-0.079380 -0.058754 0
-0.070177 -0.058402 0
-0.060883 -0.056854 0
-0.051689 -0.054142 0
-0.042787 -0.050346 0
-0.034366 -0.045588 0
-0.026602 -0.040034 0
-0.019651 -0.033891 0
-0.013644 -0.027402 0
-0.008679 -0.020841 0
-0.004822 -0.014505 0
-0.002101 -0.008705 0
-0.000507 -0.003763 0
0.000000 -0.000000 0
0.000000 -0.000000 0
-0.000921 0.009879 0
-0.003404 0.019021 0
-0.007196 0.027287 0
-0.012076 0.034600 0
-0.017844 0.040927 0
-0.024329 0.046269 0
-0.031379 0.050650 0
-0.038862 0.054109 0
-0.046661 0.056691 0
-0.054673 0.058441 0
-0.062803 0.059401 0
-0.070965 0.059608 0
-0.079079 0.059091 0
-0.087066 0.057873 0
-0.094852 0.055970 0
-0.102364 0.053393 0
-0.109528 0.050153 0
-0.116271 0.046260 0
-0.122521 0.041730 0
-0.128205 0.036580 0
-0.133249 0.030841 0
-0.137583 0.024550 0
-0.141137 0.017760 0
-0.143845 0.010535 0
-0.145642 0.002958 0
-0.146474 -0.004877 0
-0.146290 -0.012856 0
-0.145051 -0.020852 0
-0.142731 -0.028723 0
-0.139318 -0.036316 0
-0.134819 -0.043469 0
-0.129260 -0.050015 0
-0.122692 -0.055787 0
-0.115189 -0.060626 0
-0.106855 -0.064383 0
-0.097818 -0.066931 0
-0.088233 -0.068172 0
-0.078279 -0.068043 0
-0.068153 -0.066521 0
-0.058066 -0.063634 0
-0.048236 -0.059459 0
-0.038879 -0.054126 0
-0.030200 -0.047818 0
-0.022386 -0.040764 0
-0.015596 -0.033237 0
-0.009955 -0.025545 0
-0.005549 -0.018021 0
-0.002426 -0.011016 0
-0.000588 -0.004891 0
0.000000 -0.000000 0
0.000000 -0.000000 0
-0.000981 0.011638 0
-0.003621 0.022262 0
-0.007648 0.031762 0
-0.012821 0.040089 0
-0.018927 0.047238 0
-0.025782 0.053235 0
-0.033225 0.058125 0
-0.041116 0.061966 0
-0.049333 0.064816 0
-0.057770 0.066733 0
-0.066330 0.067770 0
-0.074925 0.067970 0
-0.083475 0.067366 0
-0.091901 0.065985 0
-0.100131 0.063845 0
-0.108090 0.060958 0
-0.115706 0.057335 0
-0.122907 0.052986 0
-0.129620 0.047926 0
-0.135769 0.042173 0
-0.141281 0.035756 0
-0.146080 0.028716 0
-0.150093 0.021106 0
-0.153248 0.012993 0
-0.155473 0.004464 0
-0.156703 -0.004380 0
-0.156879 -0.013418 0
-0.155950 -0.022512 0
-0.153877 -0.031506 0
-0.150633 -0.040230 0
-0.146214 -0.048504 0
-0.140632 -0.056138 0
-0.133927 -0.062939 0
-0.126166 -0.068720 0
-0.117446 -0.073305 0
-0.107893 -0.076538 0
-0.097669 -0.078294 0
-0.086960 -0.078483 0
-0.075981 -0.077067 0
-0.064964 -0.074059 0
-0.054154 -0.069533 0
-0.043798 -0.063623 0
-0.034135 -0.056526 0
-0.025386 -0.048495 0
-0.017742 -0.039834 0
-0.011359 -0.030888 0
-0.006352 -0.022034 0
-0.002785 -0.013666 0
-0.000678 -0.006189 0
0.000000 -0.000000 0
0.000000 -0.000000 0
-0.001035 0.013500 0
-0.003815 0.025688 0
-0.008052 0.036487 0
-0.013489 0.045879 0
-0.019899 0.053888 0
-0.027088 0.060566 0
-0.034887 0.065984 0
-0.043149 0.070218 0
-0.051749 0.073345 0
-0.060576 0.075437 0
-0.069531 0.076556 0
-0.078529 0.076753 0
-0.087486 0.076067 0
-0.096327 0.074529 0
-0.104980 0.072158 0
-0.113371 0.068969 0
-0.121430 0.064970 0
-0.129085 0.060174 0
-0.136263 0.054591 0
-0.142889 0.048241 0
-0.148887 0.041152 0
-0.154179 0.033363 0
-0.158688 0.024927 0
-0.162335 0.015915 0
-0.165042 0.006413 0
-0.166734 -0.003471 0
-0.167342 -0.013609 0
-0.166800 -0.023854 0
-0.165056 -0.034039 0
-0.162070 -0.043979 0
-0.157818 -0.053470 0
-0.152300 -0.062301 0
-0.145540 -0.070253 0
-0.137594 -0.077108 0
-0.128549 -0.082656 0
-0.118528 -0.086708 0
-0.107694 -0.089106 0
-0.096241 -0.089731 0
-0.084399 -0.088517 0
-0.072423 -0.085461 0
-0.060586 -0.080625 0
-0.049169 -0.074145 0
-0.038449 -0.066231 0
-0.028686 -0.057158 0
-0.020111 -0.047263 0
-0.012915 -0.036935 0
-0.007243 -0.026595 0
-0.003186 -0.016691 0
-0.000778 -0.007676 0
0.000000 -0.000000 0
0.000000 -0.000000 0
-0.001081 0.015454 0
-0.003985 0.029280 0
-0.008405 0.041435 0
-0.014073 0.051936 0
-0.020752 0.060838 0
-0.028236 0.068223 0
-0.036350 0.074186 0
-0.044943 0.078828 0
-0.053884 0.082242 0
-0.063061 0.084516 0
-0.072375 0.085723 0
-0.081738 0.085924 0
-0.091069 0.085165 0
-0.100295 0.083479 0
-0.109343 0.080889 0
-0.118145 0.077409 0
-0.126629 0.073049 0
-0.134727 0.067819 0
-0.142365 0.061729 0
-0.149470 0.054797 0
-0.155965 0.047047 0
-0.161770 0.038518 0
-0.166803 0.029261 0
-0.170981 0.019347 0
-0.174219 0.008863 0
-0.176433 -0.002081 0
-0.177540 -0.013353 0
-0.177465 -0.024797 0
-0.176137 -0.036236 0
-0.173500 -0.047469 0
-0.169513 -0.058274 0
-0.164157 -0.068415 0
-0.157438 -0.077645 0
-0.149397 -0.085712 0
-0.140107 -0.092371 0
-0.129685 -0.097393 0
-0.118289 -0.100581 0
-0.106120 -0.101778 0
-0.093421 -0.100885 0
-0.080469 -0.097872 0
-0.067566 -0.092787 0
-0.055030 -0.085760 0
-0.043182 -0.077009 0
-0.032324 -0.066833 0
-0.022734 -0.055605 0
-0.014645 -0.043756 0
-0.008239 -0.031763 0
-0.003635 -0.020132 0
-0.000891 -0.009374 0
0.000000 -0.000000 0
0.000000 0.000000 0
-0.001120 0.017485 0
-0.004127 0.033013 0
-0.008704 0.046576 0
-0.014568 0.058225 0
-0.021475 0.068050 0
-0.029213 0.076164 0
-0.037599 0.082691 0
-0.046477 0.087752 0
-0.055715 0.091463 0
-0.065198 0.093928 0
-0.074826 0.095233 0
-0.084513 0.095447 0
-0.094179 0.094625 0
-0.103751 0.092803 0
-0.113161 0.090008 0
-0.122341 0.086255 0
-0.131225 0.081553 0
-0.139744 0.075909 0
-0.147828 0.069334 0
-0.155404 0.061841 0
-0.162395 0.053452 0
-0.168722 0.044201 0
-0.174298 0.034138 0
-0.179036 0.023331 0
-0.182845 0.011865 0
-0.185632 -0.000150 0
-0.187304 -0.012577 0
-0.187770 -0.025258 0
-0.186944 -0.038004 0
-0.184753 -0.050602 0
-0.181135 -0.062813 0
-0.176051 -0.074376 0
-0.169484 -0.085013 0
-0.161456 -0.094439 0
-0.152022 -0.102368 0
-0.141287 -0.108526 0
-0.129401 -0.112670 0
-0.116567 -0.114598 0
-0.103037 -0.114169 0
-0.089107 -0.111316 0
-0.075113 -0.106063 0
-0.061410 -0.098529 0
-0.048364 -0.088937 0
-0.036331 -0.077605 0
-0.025639 -0.064942 0
-0.016571 -0.051430 0
-0.009352 -0.037605 0
-0.004141 -0.024038 0
-0.001020 -0.011311 0
0.000000 -0.000000 0
0.000000 0.000000 0
-0.001152 0.019581 0
-0.004242 0.036863 0
-0.008944 0.051876 0
-0.014969 0.064707 0
-0.022063 0.075483 0
-0.030009 0.084346 0
-0.038619 0.091451 0
-0.047735 0.096944 0
-0.057220 0.100963 0
-0.066959 0.103627 0
-0.076853 0.105038 0
-0.086814 0.105277 0
-0.096767 0.104404 0
-0.106640 0.102462 0