# vtk DataFile Version 2.0
generated by CFD-lab course output (written by Tobias Neckel) 
ASCII

DATASET STRUCTURED_GRID
DIMENSIONS  51 51 1 
POINTS 2601 float

0.000000 0.000000 0
0.020000 0.000000 0
0.040000 0.000000 0
0.060000 0.000000 0
0.080000 0.000000 0
0.100000 0.000000 0
0.120000 0.000000 0
0.140000 0.000000 0
0.160000 0.000000 0
0.180000 0.000000 0
0.200000 0.000000 0
0.220000 0.000000 0
0.240000 0.000000 0
0.260000 0.000000 0
0.280000 0.000000 0
0.300000 0.000000 0
0.320000 0.000000 0
0.340000 0.000000 0
0.360000 0.000000 0
0.380000 0.000000 0
0.400000 0.000000 0
0.420000 0.000000 0
0.440000 0.000000 0
0.460000 0.000000 0
0.480000 0.000000 0
0.500000 0.000000 0
0.520000 0.000000 0
0.540000 0.000000 0
0.560000 0.000000 0
0.580000 0.000000 0
0.600000 0.000000 0
0.620000 0.000000 0
0.640000 0.000000 0
0.660000 0.000000 0
0.680000 0.000000 0
0.700000 0.000000 0
0.720000 0.000000 0
0.740000 0.000000 0
0.760000 0.000000 0
0.780000 0.000000 0
0.800000 0.000000 0
0.820000 0.000000 0
0.840000 0.000000 0
0.860000 0.000000 0
0.880000 0.000000 0
0.900000 0.000000 0
0.920000 0.000000 0
0.940000 0.000000 0
0.960000 0.000000 0
0.980000 0.000000 0
1.000000 0.000000 0
0.000000 0.020000 0
0.020000 0.020000 0
0.040000 0.020000 0
0.060000 0.020000 0
0.080000 0.020000 0
0.100000 0.020000 0
0.120000 0.020000 0
0.140000 0.020000 0
0.160000 0.020000 0
0.180000 0.020000 0
0.200000 0.020000 0
0.220000 0.020000 0
0.240000 0.020000 0
0.260000 0.020000 0
0.280000 0.020000 0
0.300000 0.020000 0
0.320000 0.020000 0
0.340000 0.020000 0
0.360000 0.020000 0
0.380000 0.020000 0
0.400000 0.020000 0
0.420000 0.020000 0
0.440000 0.020000 0
0.460000 0.020000 0
0.480000 0.020000 0
0.500000 0.020000 0
0.520000 0.020000 0
0.540000 0.020000 0
0.560000 0.020000 0
0.580000 0.020000 0
0.600000 0.020000 0
0.620000 0.020000 0
0.640000 0.020000 0
0.660000 0.020000 0
0.680000 0.020000 0
0.700000 0.020000 0
0.720000 0.020000 0
0.740000 0.020000 0
0.760000 0.020000 0
0.780000 0.020000 0
0.800000 0.020000 0
0.820000 0.020000 0
0.840000 0.020000 0
0.860000 0.020000 0
0.880000 0.020000 0
0.900000 0.020000 0
0.920000 0.020000 0
0.940000 0.020000 0
0.960000 0.020000 0
0.980000 0.020000 0
1.000000 0.020000 0
0.000000 0.040000 0
0.020000 0.040000 0
0.040000 0.040000 0
0.060000 0.040000 0
0.080000 0.040000 0
0.100000 0.040000 0
0.120000 0.040000 0
0.140000 0.040000 0
0.160000 0.040000 0
0.180000 0.040000 0
0.200000 0.040000 0
0.220000 0.040000 0
0.240000 0.040000 0
0.260000 0.040000 0
0.280000 0.040000 0
0.300000 0.040000 0
0.320000 0.040000 0
0.340000 0.040000 0
0.360000 0.040000 0
0.380000 0.040000 0
0.400000 0.040000 0
0.420000 0.040000 0
0.440000 0.040000 0
0.460000 0.040000 0
0.480000 0.040000 0
0.500000 0.040000 0
0.520000 0.040000 0
0.540000 0.040000 0
0.560000 0.040000 0
0.580000 0.040000 0
0.600000 0.040000 0
0.620000 0.040000 0
0.640000 0.040000 0
0.660000 0.040000 0
0.680000 0.040000 0
0.700000 0.040000 0
0.720000 0.040000 0
0.740000 0.040000 0
0.760000 0.040000 0
0.780000 0.040000 0
0.800000 0.040000 0
0.820000 0.040000 0
0.840000 0.040000 0
0.860000 0.040000 0
0.880000 0.040000 0
0.900000 0.040000 0
0.920000 0.040000 0
0.940000 0.040000 0
0.960000 0.040000 0
0.980000 0.040000 0
1.000000 0.040000 0
0.000000 0.060000 0
0.020000 0.060000 0
0.040000 0.060000 0
0.060000 0.060000 0
0.080000 0.060000 0
0.100000 0.060000 0
0.120000 0.060000 0
0.140000 0.060000 0
0.160000 0.060000 0
0.180000 0.060000 0
0.200000 0.060000 0
0.220000 0.060000 0
0.240000 0.060000 0
0.260000 0.060000 0
0.280000 0.060000 0
0.300000 0.060000 0
0.320000 0.060000 0
0.340000 0.060000 0
0.360000 0.060000 0
0.380000 0.060000 0
0.400000 0.060000 0
0.420000 0.060000 0
0.440000 0.060000 0
0.460000 0.060000 0
0.480000 0.060000 0
0.500000 0.060000 0
0.520000 0.060000 0
0.540000 0.060000 0
0.560000 0.060000 0
0.580000 0.060000 0
0.600000 0.060000 0
0.620000 0.060000 0
0.640000 0.060000 0
0.660000 0.060000 0
0.680000 0.060000 0
0.700000 0.060000 0
0.720000 0.060000 0
0.740000 0.060000 0
0.760000 0.060000 0
0.780000 0.060000 0
0.800000 0.060000 0
0.820000 0.060000 0
0.840000 0.060000 0
0.860000 0.060000 0
0.880000 0.060000 0
0.900000 0.060000 0
0.920000 0.060000 0
0.940000 0.060000 0
0.960000 0.060000 0
0.980000 0.060000 0
1.000000 0.060000 0
0.000000 0.080000 0
0.020000 0.080000 0
0.040000 0.080000 0
0.060000 0.080000 0
0.080000 0.080000 0
0.100000 0.080000 0
0.120000 0.080000 0
0.140000 0.080000 0
0.160000 0.080000 0
0.180000 0.080000 0
0.200000 0.080000 0
0.220000 0.080000 0
0.240000 0.080000 0
0.260000 0.080000 0
0.280000 0.080000 0
0.300000 0.080000 0
0.320000 0.080000 0
0.340000 0.080000 0
0.360000 0.080000 0
0.380000 0.080000 0
0.400000 0.080000 0
0.420000 0.080000 0
0.440000 0.080000 0
0.460000 0.080000 0
0.480000 0.080000 0
0.500000 0.080000 0
0.520000 0.080000 0
0.540000 0.080000 0
0.560000 0.080000 0
0.580000 0.080000 0
0.600000 0.080000 0
0.620000 0.080000 0
0.640000 0.080000 0
0.660000 0.080000 0
0.680000 0.080000 0
0.700000 0.080000 0
0.720000 0.080000 0
0.740000 0.080000 0
0.760000 0.080000 0
0.780000 0.080000 0
0.800000 0.080000 0
0.820000 0.080000 0
0.840000 0.080000 0
0.860000 0.080000 0
0.880000 0.080000 0
0.900000 0.080000 0
0.920000 0.080000 0
0.940000 0.080000 0
0.960000 0.080000 0
0.980000 0.080000 0
1.000000 0.080000 0
0.000000 0.100000 0
0.020000 0.100000 0
0.040000 0.100000 0
0.060000 0.100000 0
0.080000 0.100000 0
0.100000 0.100000 0
0.120000 0.100000 0
0.140000 0.100000 0
0.160000 0.100000 0
0.180000 0.100000 0
0.200000 0.100000 0
0.220000 0.100000 0
0.240000 0.100000 0
0.260000 0.100000 0
0.280000 0.100000 0
0.300000 0.100000 0
0.320000 0.100000 0
0.340000 0.100000 0
0.360000 0.100000 0
0.380000 0.100000 0
0.400000 0.100000 0
0.420000 0.100000 0
0.440000 0.100000 0
0.460000 0.100000 0
0.480000 0.100000 0
0.500000 0.100000 0
0.520000 0.100000 0
0.540000 0.100000 0
0.560000 0.100000 0
0.580000 0.100000 0
0.600000 0.100000 0
0.620000 0.100000 0
0.640000 0.100000 0
0.660000 0.100000 0
0.680000 0.100000 0
0.700000 0.100000 0
0.720000 0.100000 0
0.740000 0.100000 0
0.760000 0.100000 0
0.780000 0.100000 0
0.800000 0.100000 0
0.820000 0.100000 0
0.840000 0.100000 0
0.860000 0.100000 0
0.880000 0.100000 0
0.900000 0.100000 0
0.920000 0.100000 0
0.940000 0.100000 0
0.960000 0.100000 0
0.980000 0.100000 0
1.000000 0.100000 0
0.000000 0.120000 0
0.020000 0.120000 0
0.040000 0.120000 0
0.060000 0.120000 0
0.080000 0.120000 0
0.100000 0.120000 0
0.120000 0.120000 0
0.140000 0.120000 0
0.160000 0.120000 0
0.180000 0.120000 0
0.200000 0.120000 0
0.220000 0.120000 0
0.240000 0.120000 0
0.260000 0.120000 0
0.280000 0.120000 0
0.300000 0.120000 0
0.320000 0.120000 0
0.340000 0.120000 0
0.360000 0.120000 0
0.380000 0.120000 0
0.400000 0.120000 0
0.420000 0.120000 0
0.440000 0.120000 0
0.460000 0.120000 0
0.480000 0.120000 0
0.500000 0.120000 0
0.520000 0.120000 0
0.540000 0.120000 0
0.560000 0.120000 0
0.580000 0.120000 0
0.600000 0.120000 0
0.620000 0.120000 0
0.640000 0.120000 0
0.660000 0.120000 0
0.680000 0.120000 0
0.700000 0.120000 0
0.720000 0.120000 0
0.740000 0.120000 0
0.760000 0.120000 0
0.780000 0.120000 0
0.800000 0.120000 0
0.820000 0.120000 0
0.840000 0.120000 0
0.860000 0.120000 0
0.880000 0.120000 0
0.900000 0.120000 0
0.920000 0.120000 0
0.940000 0.120000 0
0.960000 0.120000 0
0.980000 0.120000 0
1.000000 0.120000 0
0.000000 0.140000 0
0.020000 0.140000 0
0.040000 0.140000 0
0.060000 0.140000 0
0.080000 0.140000 0
0.100000 0.140000 0
0.120000 0.140000 0
0.140000 0.140000 0
0.160000 0.140000 0
0.180000 0.140000 0
0.200000 0.140000 0
0.220000 0.140000 0
0.240000 0.140000 0
0.260000 0.140000 0
0.280000 0.140000 0
0.300000 0.140000 0
0.320000 0.140000 0
0.340000 0.140000 0
0.360000 0.140000 0
0.380000 0.140000 0
0.400000 0.140000 0
0.420000 0.140000 0
0.440000 0.140000 0
0.460000 0.140000 0
0.480000 0.140000 0
0.500000 0.140000 0
0.520000 0.140000 0
0.540000 0.140000 0
0.560000 0.140000 0
0.580000 0.140000 0
0.600000 0.140000 0
0.620000 0.140000 0
0.640000 0.140000 0
0.660000 0.140000 0
0.680000 0.140000 0
0.700000 0.140000 0
0.720000 0.140000 0
0.740000 0.140000 0
0.760000 0.140000 0
0.780000 0.140000 0
0.800000 0.140000 0
0.820000 0.140000 0
0.840000 0.140000 0
0.860000 0.140000 0
0.880000 0.140000 0
0.900000 0.140000 0
0.920000 0.140000 0
0.940000 0.140000 0
0.960000 0.140000 0
0.980000 0.140000 0
1.000000 0.140000 0
0.000000 0.160000 0
0.020000 0.160000 0
0.040000 0.160000 0
0.060000 0.160000 0
0.080000 0.160000 0
0.100000 0.160000 0
0.120000 0.160000 0
0.140000 0.160000 0
0.160000 0.160000 0
0.180000 0.160000 0
0.200000 0.160000 0
0.220000 0.160000 0
0.240000 0.160000 0
0.260000 0.160000 0
0.280000 0.160000 0
0.300000 0.160000 0
0.320000 0.160000 0
0.340000 0.160000 0
0.360000 0.160000 0
0.380000 0.160000 0
0.400000 0.160000 0
0.420000 0.160000 0
0.440000 0.160000 0
0.460000 0.160000 0
0.480000 0.160000 0
0.500000 0.160000 0
0.520000 0.160000 0
0.540000 0.160000 0
0.560000 0.160000 0
0.580000 0.160000 0
0.600000 0.160000 0
0.620000 0.160000 0
0.640000 0.160000 0
0.660000 0.160000 0
0.680000 0.160000 0
0.700000 0.160000 0
0.720000 0.160000 0
0.740000 0.160000 0
0.760000 0.160000 0
0.780000 0.160000 0
0.800000 0.160000 0
0.820000 0.160000 0
0.840000 0.160000 0
0.860000 0.160000 0
0.880000 0.160000 0
0.900000 0.160000 0
0.920000 0.160000 0
0.940000 0.160000 0
0.960000 0.160000 0
0.980000 0.160000 0
1.000000 0.160000 0
0.000000 0.180000 0
0.020000 0.180000 0
0.040000 0.180000 0
0.060000 0.180000 0
0.080000 0.180000 0
0.100000 0.180000 0
0.120000 0.180000 0
0.140000 0.180000 0
0.160000 0.180000 0
0.180000 0.180000 0
0.200000 0.180000 0
0.220000 0.180000 0
0.240000 0.180000 0
0.260000 0.180000 0
0.280000 0.180000 0
0.300000 0.180000 0
0.320000 0.180000 0
0.340000 0.180000 0
0.360000 0.180000 0
0.380000 0.180000 0
0.400000 0.180000 0
0.420000 0.180000 0
0.440000 0.180000 0
0.460000 0.180000 0
0.480000 0.180000 0
0.500000 0.180000 0
0.520000 0.180000 0
0.540000 0.180000 0
0.560000 0.180000 0
0.580000 0.180000 0
0.600000 0.180000 0
0.620000 0.180000 0
[...]
POINT_DATA 2601 

VECTORS velocity float
0.000000 0.000000 0
-0.000000 0.000000 0
0.000001 0.000000 0
0.000001 0.000000 0
0.000000 0.000000 0
-0.000000 0.000000 0
-0.000000 0.000000 0
-0.000000 0.000000 0
-0.000000 0.000000 0
0.000000 0.000000 0
0.000000 0.000000 0
0.000000 0.000000 0
0.000000 0.000000 0
-0.000000 0.000000 0
-0.000000 0.000000 0
-0.000000 0.000000 0
-0.000000 0.000000 0
-0.000000 0.000000 0
-0.000000 0.000000 0
-0.000000 0.000000 0
-0.000000 0.000000 0
-0.000000 0.000000 0
-0.000000 0.000000 0
0.000000 0.000000 0
0.000000 0.000000 0
0.000000 0.000000 0
-0.000000 0.000000 0
-0.000000 0.000000 0
-0.000000 0.000000 0
-0.000000 0.000000 0
-0.000000 0.000000 0
-0.000000 0.000000 0
-0.000000 0.000000 0
-0.000000 0.000000 0
-0.000000 0.000000 0
-0.000000 0.000000 0
0.000000 0.000000 0
0.000000 0.000000 0
0.000000 0.000000 0
0.000000 0.000000 0
0.000000 0.000000 0
0.000000 0.000000 0
0.000000 0.000000 0
0.000000 0.000000 0
0.000000 0.000000 0
0.000000 0.000000 0
0.000000 0.000000 0
0.000000 0.000000 0
0.000000 0.000000 0
0.000000 0.000000 0
0.000000 0.000000 0
0.000000 -0.000000 0
0.000060 -0.000060 0
0.000082 -0.000023 0
-0.000014 0.000056 0
-0.000255 0.000144 0
-0.000645 0.000228 0
-0.001171 0.000301 0
-0.001815 0.000363 0
-0.002557 0.000412 0
-0.003375 0.000449 0
-0.004252 0.000476 0
-0.005169 0.000493 0
-0.006111 0.000502 0
-0.007061 0.000504 0
-0.008006 0.000498 0
-0.008933 0.000486 0
-0.009830 0.000467 0
-0.010683 0.000442 0
-0.011481 0.000410 0
-0.012210 0.000372 0
-0.012859 0.000326 0
-0.013415 0.000274 0
-0.013866 0.000216 0
-0.014201 0.000152 0
-0.014411 0.000082 0
-0.014487 0.000009 0
-0.014423 -0.000068 0
-0.014216 -0.000147 0
-0.013864 -0.000225 0
-0.013370 -0.000301 0
-0.012740 -0.000373 0
-0.011983 -0.000439 0
-0.011114 -0.000497 0
-0.010149 -0.000544 0
-0.009109 -0.000579 0
-0.008016 -0.000600 0
-0.006897 -0.000607 0
-0.005778 -0.000598 0
-0.004687 -0.000574 0
-0.003651 -0.000535 0
-0.002697 -0.000482 0
-0.001847 -0.000416 0
-0.001122 -0.000339 0
-0.000538 -0.000255 0
-0.000105 -0.000167 0
0.000173 -0.000079 0
0.000305 0.000002 0
0.000306 0.000066 0
0.000213 0.000100 0
0.000082 0.000082 0
0.000000 -0.000000 0
0.000000 0.000000 0
0.000024 -0.000081 0
-0.000075 0.000075 0
-0.000385 0.000337 0
-0.000944 0.000631 0
-0.001754 0.000915 0
-0.002797 0.001169 0
-0.004045 0.001385 0
-0.005466 0.001561 0
-0.007025 0.001696 0
-0.008689 0.001794 0
-0.010425 0.001858 0
-0.012204 0.001891 0
-0.013998 0.001895 0
-0.015780 0.001873 0
-0.017525 0.001824 0
-0.019210 0.001750 0
-0.020809 0.001651 0
-0.022300 0.001527 0
-0.023660 0.001378 0
-0.024864 0.001205 0
-0.025891 0.001007 0
-0.026719 0.000787 0
-0.027329 0.000545 0
-0.027704 0.000286 0
-0.027830 0.000012 0
-0.027696 -0.000271 0
-0.027296 -0.000560 0
-0.026631 -0.000846 0
-0.025705 -0.001124 0
-0.024530 -0.001387 0
-0.023125 -0.001626 0
-0.021515 -0.001834 0
-0.019729 -0.002005 0
-0.017806 -0.002133 0
-0.015786 -0.002212 0
-0.013715 -0.002238 0
-0.011641 -0.002210 0
-0.009613 -0.002127 0
-0.007680 -0.001990 0
-0.005887 -0.001804 0
-0.004276 -0.001575 0
-0.002882 -0.001309 0
-0.001734 -0.001017 0
-0.000848 -0.000712 0
-0.000230 -0.000410 0
0.000133 -0.000133 0
0.000269 0.000092 0
0.000231 0.000224 0
0.000102 0.000213 0
0.000000 -0.000000 0
0.000000 0.000001 0
-0.000056 0.000016 0
-0.000349 0.000387 0
-0.000948 0.000924 0
-0.001879 0.001511 0
-0.003138 0.002080 0
-0.004703 0.002593 0
-0.006538 0.003033 0
-0.008602 0.003392 0
-0.010848 0.003672 0
-0.013234 0.003876 0
-0.015716 0.004008 0
-0.018253 0.004075 0
-0.020806 0.004080 0
-0.023339 0.004026 0
-0.025815 0.003916 0
-0.028201 0.003751 0
-0.030461 0.003533 0
-0.032564 0.003260 0
-0.034475 0.002935 0
-0.036164 0.002557 0
-0.037598 0.002130 0
-0.038750 0.001655 0
-0.039594 0.001137 0
-0.040105 0.000583 0
-0.040266 -0.000000 0
-0.040063 -0.000602 0
-0.039491 -0.001212 0
-0.038550 -0.001816 0
-0.037247 -0.002402 0
-0.035599 -0.002953 0
-0.033633 -0.003455 0
-0.031382 -0.003893 0
-0.028888 -0.004253 0
-0.026201 -0.004522 0
-0.023378 -0.004691 0
-0.020479 -0.004752 0
-0.017568 -0.004700 0
-0.014713 -0.004536 0
-0.011978 -0.004262 0
-0.009425 -0.003886 0
-0.007109 -0.003420 0
-0.005080 -0.002881 0
-0.003374 -0.002289 0
-0.002014 -0.001671 0
-0.001008 -0.001060 0
-0.000344 -0.000497 0
0.000013 -0.000032 0
0.000123 0.000266 0
0.000076 0.000313 0
0.000000 -0.000000 0
0.000000 0.000000 0
-0.000153 0.000269 0
-0.000676 0.000966 0
-0.001604 0.001865 0
-0.002941 0.002821 0
-0.004674 0.003740 0
-0.006768 0.004570 0
-0.009181 0.005284 0
-0.011863 0.005871 0
-0.014761 0.006328 0
-0.017822 0.006661 0
-0.020994 0.006877 0
-0.024229 0.006981 0
-0.027477 0.006981 0
-0.030692 0.006882 0
-0.033831 0.006686 0
-0.036850 0.006396 0
-0.039705 0.006014 0
-0.042357 0.005541 0
-0.044762 0.004978 0
-0.046883 0.004328 0
-0.048680 0.003594 0
-0.050120 0.002782 0
-0.051170 0.001900 0
-0.051803 0.000958 0
-0.051996 -0.000029 0
-0.051736 -0.001046 0
-0.051015 -0.002074 0
-0.049834 -0.003091 0
-0.048204 -0.004074 0
-0.046145 -0.005000 0
-0.043690 -0.005843 0
-0.040878 -0.006579 0
-0.037763 -0.007186 0
-0.034403 -0.007643 0
-0.030866 -0.007935 0
-0.027227 -0.008048 0
-0.023564 -0.007975 0
-0.019955 -0.007717 0
-0.016481 -0.007279 0
-0.013216 -0.006673 0
-0.010229 -0.005919 0
-0.007579 -0.005044 0
-0.005311 -0.004083 0
-0.003455 -0.003077 0
-0.002025 -0.002080 0
-0.001008 -0.001154 0
-0.000373 -0.000375 0
-0.000058 0.000161 0
0.000026 0.000336 0
0.000000 -0.000000 0
0.000000 0.000000 0
-0.000254 0.000692 0
-0.001021 0.001836 0
-0.002296 0.003188 0
-0.004059 0.004581 0
-0.006277 0.005908 0
-0.008906 0.007101 0
-0.011891 0.008128 0
-0.015175 0.008972 0
-0.018698 0.009630 0
-0.022400 0.010109 0
-0.026221 0.010415 0
-0.030106 0.010557 0
-0.033998 0.010543 0
-0.037845 0.010381 0
-0.041594 0.010074 0
-0.045193 0.009626 0
-0.048594 0.009039 0
-0.051748 0.008317 0
-0.054606 0.007461 0
-0.057123 0.006476 0
-0.059255 0.005367 0
-0.060962 0.004144 0
-0.062206 0.002820 0
-0.062958 0.001409 0
-0.063193 -0.000066 0
-0.062893 -0.001583 0
-0.062051 -0.003114 0
-0.060668 -0.004628 0
-0.058757 -0.006090 0
-0.056341 -0.007467 0
-0.053457 -0.008722 0
-0.050150 -0.009820 0
-0.046480 -0.010729 0
-0.042514 -0.011419 0
-0.038330 -0.011867 0
-0.034013 -0.012055 0
-0.029651 -0.011972 0
-0.025336 -0.011618 0
-0.021160 -0.011001 0
-0.017209 -0.010138 0
-0.013563 -0.009058 0
-0.010292 -0.007799 0
-0.007451 -0.006412 0
-0.005078 -0.004957 0
-0.003191 -0.003507 0
-0.001786 -0.002148 0
-0.000833 -0.000983 0
-0.000277 -0.000132 0
-0.000036 0.000255 0
0.000000 -0.000000 0
0.000000 -0.000000 0
-0.000353 0.001289 0
-0.001365 0.003007 0
-0.002993 0.004904 0
-0.005188 0.006803 0
-0.007897 0.008587 0
-0.011058 0.010184 0
-0.014609 0.011553 0
-0.018481 0.012677 0
-0.022608 0.013553 0
-0.026923 0.014185 0
-0.031362 0.014583 0
-0.035861 0.014759 0
-0.040359 0.014720 0
-0.044797 0.014477 0
-0.049115 0.014034 0
-0.053258 0.013397 0
-0.057168 0.012569 0
-0.060792 0.011553 0
-0.064075 0.010353 0
-0.066967 0.008977 0
-0.069419 0.007432 0
-0.071386 0.005733 0
-0.072827 0.003897 0
-0.073707 0.001945 0
-0.073999 -0.000094 0
-0.073685 -0.002188 0
-0.072755 -0.004299 0
-0.071210 -0.006385 0
-0.069063 -0.008401 0
-0.066339 -0.010300 0
-0.063078 -0.012034 0
-0.059330 -0.013556 0
-0.055158 -0.014822 0
-0.050637 -0.015793 0
-0.045852 -0.016436 0
-0.040897 -0.016727 0
-0.035870 -0.016652 0
-0.030875 -0.016208 0
-0.026012 -0.015406 0
-0.021382 -0.014270 0
-0.017076 -0.012836 0
-0.013173 -0.011157 0
-0.009740 -0.009297 0
-0.006825 -0.007337 0
-0.004454 -0.005372 0
-0.002631 -0.003512 0
-0.001333 -0.001884 0
-0.000514 -0.000636 0
-0.000101 0.000059 0
0.000000 -0.000000 0
0.000000 -0.000000 0
-0.000448 0.002057 0
-0.001701 0.004477 0
-0.003679 0.007012 0
-0.006303 0.009486 0
-0.009498 0.011778 0
-0.013186 0.013813 0
-0.017292 0.015550 0
-0.021738 0.016971 0
-0.026451 0.018073 0
-0.031357 0.018863 0
-0.036387 0.019353 0
-0.041472 0.019554 0
-0.046546 0.019479 0
-0.051544 0.019136 0
-0.056402 0.018534 0
-0.061060 0.017679 0
-0.065456 0.016574 0
-0.069530 0.015224 0
-0.073224 0.013637 0
-0.076482 0.011820 0
-0.079251 0.009785 0
-0.081481 0.007551 0
-0.083130 0.005141 0
-0.084157 0.002582 0
-0.084534 -0.000088 0
-0.084237 -0.002828 0
-0.083257 -0.005590 0
-0.081592 -0.008320 0
-0.079255 -0.010960 0
-0.076272 -0.013451 0
-0.072682 -0.015731 0
-0.068538 -0.017740 0
-0.063908 -0.019422 0
-0.058870 -0.020725 0
-0.053517 -0.021607 0
-0.047949 -0.022036 0
-0.042275 -0.021994 0
-0.036607 -0.021476 0
-0.031059 -0.020493 0
-0.025742 -0.019074 0
-0.020760 -0.017267 0
-0.016205 -0.015135 0
-0.012156 -0.012760 0
-0.008670 -0.010244 0
-0.005787 -0.007702 0
-0.003519 -0.005269 0
-0.001856 -0.003099 0
-0.000758 -0.001365 0
-0.000166 -0.000259 0
0.000000 -0.000000 0
0.000000 -0.000000 0
-0.000539 0.002990 0
-0.002025 0.006238 0
-0.004343 0.009506 0
-0.007387 0.012623 0
-0.011059 0.015471 0
-0.015263 0.017978 0
-0.019910 0.020105 0
-0.024915 0.021836 0
-0.030196 0.023172 0
-0.035673 0.024121 0
-0.041271 0.024698 0
-0.046918 0.024917 0
-0.052544 0.024792 0
-0.058079 0.024334 0
-0.063456 0.023551 0
-0.068610 0.022450 0
-0.073475 0.021038 0
-0.077989 0.019320 0
-0.082088 0.017305 0
-0.085713 0.015004 0
-0.088807 0.012432 0
-0.091316 0.009612 0
-0.093193 0.006572 0
-0.094396 0.003349 0
-0.094890 -0.000014 0
-0.094650 -0.003465 0
-0.093663 -0.006944 0
-0.091925 -0.010387 0
-0.089446 -0.013721 0
-0.086251 -0.016873 0
-0.082378 -0.019768 0
-0.077881 -0.022331 0
-0.072829 -0.024490 0
-0.067306 -0.026184 0
-0.061407 -0.027357 0
-0.055242 -0.027969 0
-0.048926 -0.027993 0
-0.042582 -0.027423 0
-0.036338 -0.026271 0
-0.030315 -0.024569 0
-0.024631 -0.022373 0
-0.019394 -0.019761 0
-0.014695 -0.016832 0
-0.010608 -0.013706 0
-0.007182 -0.010523 0
-0.004445 -0.007443 0
-0.002395 -0.004645 0
-0.001007 -0.002326 0
-0.000232 -0.000699 0
0.000000 -0.000000 0
0.000000 -0.000000 0
-0.000625 0.004081 0
-0.002333 0.008281 0
-0.004980 0.012375 0
-0.008430 0.016202 0
-0.012563 0.019653 0
-0.017268 0.022664 0
-0.022441 0.025202 0
-0.027987 0.027256 0
-0.033816 0.028830 0
-0.039844 0.029939 0
-0.045990 0.030598 0
-0.052179 0.030827 0
-0.058336 0.030639 0
-0.064390 0.030049 0
-0.070270 0.029066 0
-0.075908 0.027698 0
-0.081235 0.025953 0
-0.086185 0.023837 0
-0.090692 0.021361 0
-0.094693 0.018538 0
-0.098127 0.015388 0
-0.100937 0.011938 0
-0.103072 0.008220 0
-0.104484 0.004279 0
-0.105137 0.000167 0
-0.105000 -0.004055 0
-0.104054 -0.008315 0
-0.102294 -0.012537 0
-0.099725 -0.016634 0
-0.096367 -0.020519 0
-0.092258 -0.024101 0
-0.087450 -0.027289 0
-0.082013 -0.029997 0
-0.076031 -0.032147 0
-0.069605 -0.033671 0
-0.062849 -0.034518 0
-0.055890 -0.034653 0
-0.048860 -0.034064 0
-0.041897 -0.032761 0
-0.035139 -0.030781 0
-0.028720 -0.028187 0
-0.022763 -0.025071 0
-0.017376 -0.021547 0
-0.012648 -0.017757 0
-0.008646 -0.013865 0
-0.005409 -0.010057 0
-0.002952 -0.006537 0
-0.001261 -0.003528 0
-0.000297 -0.001265 0
0.000000 -0.000000 0
0.000000 0.000000 0
-0.000706 0.005324 0
-0.002627 0.010594 0
-0.005586 0.015603 0
-0.009425 0.020206 0
-0.014002 0.024308 0
-0.019187 0.027855 0
-0.024866 0.030824 0
-0.030932 0.033211 0
-0.037289 0.035028 0
-0.043847 0.036295 0
-0.050521 0.037033 0
-0.057232 0.037263 0
-0.063903 0.037003 0
-0.070460 0.036268 0
-0.076831 0.035069 0
-0.082945 0.033415 0
-0.088731 0.031315 0
-0.094119 0.028777 0
-0.099043 0.025813 0
-0.103434 0.022439 0
-0.107230 0.018676 0
-0.110370 0.014557 0
-0.112797 0.010119 0
-0.114461 0.005414 0
-0.115319 0.000501 0
-0.115336 -0.004547 0
-0.114488 -0.009650 0
-0.112761 -0.014717 0
-0.110157 -0.019648 0
-0.106691 -0.024340 0
-0.102396 -0.028685 0
-0.097321 -0.032576 0
-0.091534 -0.035910 0
-0.085121 -0.038592 0
-0.078184 -0.040538 0
-0.070845 -0.041684 0
-0.063235 -0.041983 0
-0.055501 -0.041416 0
-0.047794 -0.039991 0
-0.040267 -0.037745 0
-0.033071 -0.034750 0
-0.026348 -0.031106 0
-0.020226 -0.026947 0
-0.014813 -0.022436 0
-0.010193 -0.017762 0
-0.006425 -0.013137 0
-0.003535 -0.008793 0
-0.001524 -0.004981 0
-0.000363 -0.001960 0
0.000000 -0.000000 0
0.000000 0.000000 0
-0.000782 0.006708 0
-0.002903 0.013162 0
-0.006158 0.019173 0
-0.010366 0.024617 0
-0.015363 0.029415 0
-0.021007 0.033529 0
-0.027168 0.036947 0
-0.033732 0.039679 0
-0.040594 0.041745 0
-0.047659 0.043171 0
-0.054840 0.043983 0
-0.062054 0.044209 0
-0.069222 0.043868 0
-0.076269 0.042977 0
-0.083120 0.041550 0
-0.089704 0.039597 0
-0.095948 0.037127 0
-0.101781 0.034149 0
-0.107132 0.030676 0
-0.111933 0.026726 0
-0.116117 0.022324 0
-0.119619 0.017504 0
-0.122379 0.012311 0
-0.124341 0.006801 0
-0.125456 0.001042 0
-0.125684 -0.004886 0
-0.124991 -0.010891 0
-0.123360 -0.016868 0
-0.120782 -0.022704 0
-0.117267 -0.028280 0
-0.112841 -0.033471 0
-0.107548 -0.038151 0
-0.101452 -0.042197 0
-0.094638 -0.045497 0
-0.087210 -0.047947 0
-0.079292 -0.049467 0
-0.071028 -0.049997 0
-0.062571 -0.049505 0
-0.054089 -0.047995 0
-0.045752 -0.045504 0
-0.037732 -0.042106 0
-0.030192 -0.037916 0
-0.023282 -0.033082 0
-0.017132 -0.027789 0
-0.011848 -0.022253 0
-0.007506 -0.016715 0
-0.004153 -0.011437 0
-0.001802 -0.006700 0
-0.000433 -0.002790 0
0.000000 -0.000000 0
0.000000 0.000000 0
-0.000854 0.008227 0
-0.003161 0.015970 0
-0.006694 0.023066 0
-0.011247 0.029411 0
-0.016641 0.034949 0
-0.022716 0.039660 0
-0.029333 0.043548 0
-0.036368 0.046636 0
-0.043709 0.048956 0
-0.051258 0.050542 0
-0.058922 0.051428 0
-0.066618 0.051645 0
-0.074266 0.051218 0
-0.081788 0.050166 0
-0.089110 0.048504 0
-0.096158 0.046243 0
-0.102860 0.043392 0
-0.109143 0.039961 0
-0.114936 0.035966 0
-0.120167 0.031424 0
-0.124766 0.026362 0
-0.128666 0.020819 0
-0.131801 0.014841 0
-0.134110 0.008491 0
-0.135539 0.001844 0
-0.136037 -0.005012 0
-0.135566 -0.011974 0
-0.134096 -0.018926 0
-0.131612 -0.025740 0
-0.128114 -0.032281 0
-0.123619 -0.038404 0
-0.118163 -0.043965 0
-0.111805 -0.048820 0
-0.104627 -0.052834 0
-0.096732 -0.055884 0
-0.088248 -0.057866 0
-0.079325 -0.058705 0
-0.070129 -0.058355 0
-0.060842 -0.056810 0
-0.051654 -0.054102 0
-0.042759 -0.050310 0
-0.034344 -0.045556 0
-0.026585 -0.040007 0
-0.019639 -0.033870 0
-0.013636 -0.027387 0
-0.008674 -0.020831 0
-0.004819 -0.014498 0
-0.002099 -0.008702 0
-0.000507 -0.003762 0
0.000000 -0.000000 0
0.000000 0.000000 0
-0.000920 0.009869 0
-0.003400 0.019001 0
-0.007189 0.027259 0
-0.012063 0.034564 0
-0.017825 0.040884 0
-0.024303 0.046221 0
-0.031346 0.050599 0
-0.038821 0.054055 0
-0.046613 0.056635 0
-0.054618 0.058384 0
-0.062741 0.059344 0
-0.070896 0.059552 0
-0.079003 0.059037 0
-0.086984 0.057821 0
-0.094764 0.055921 0
-0.102270 0.053348 0
-0.109429 0.050112 0
-0.116168 0.046225 0
-0.122414 0.041700 0
-0.128095 0.036556 0
-0.133137 0.030823 0
-0.137469 0.024539 0
-0.141023 0.017756 0
-0.143730 0.010539 0
-0.145528 0.002968 0
-0.146361 -0.004859 0
-0.146179 -0.012832 0
-0.144943 -0.020821 0
-0.142626 -0.028686 0
-0.139217 -0.036274 0
-0.134723 -0.043422 0
-0.129169 -0.049964 0
-0.122606 -0.055734 0
-0.115110 -0.060570 0
-0.106782 -0.064326 0
-0.097752 -0.066874 0
-0.088174 -0.068116 0
-0.078227 -0.067988 0
-0.068108 -0.066470 0
-0.058028 -0.063587 0
-0.048205 -0.059417 0
-0.038854 -0.054089 0
-0.030181 -0.047787 0
-0.022372 -0.040739 0
-0.015586 -0.033218 0
-0.009949 -0.025531 0
-0.005546 -0.018012 0
-0.002424 -0.011012 0
-0.000588 -0.004889 0
0.000000 -0.000000 0
0.000000 -0.000000 0
-0.000980 0.011626 0
-0.003617 0.022238 0
-0.007640 0.031729 0
-0.012807 0.040048 0
-0.018907 0.047190 0
-0.025755 0.053181 0
-0.033191 0.058067 0
-0.041074 0.061904 0
-0.049284 0.064752 0
-0.057714 0.066669 0
-0.066266 0.067706 0
-0.074854 0.067907 0
-0.083397 0.067305 0
-0.091817 0.065927 0
-0.100040 0.063790 0
-0.107994 0.060908 0
-0.115606 0.057290 0
-0.122802 0.052947 0
-0.129511 0.047892 0
-0.135657 0.042146 0
-0.141166 0.035737 0
-0.145964 0.028704 0
-0.149977 0.021102 0
-0.153131 0.012997 0
-0.155356 0.004475 0
-0.156588 -0.004361 0
-0.156766 -0.013392 0
-0.155839 -0.022478 0
-0.153769 -0.031465 0
-0.150530 -0.040184 0
-0.146114 -0.048453 0
-0.140538 -0.056082 0
-0.133838 -0.062879 0
-0.126083 -0.068658 0
-0.117369 -0.073241 0
-0.107824 -0.076474 0
-0.097606 -0.078230 0
-0.086904 -0.078422 0
-0.075933 -0.077009 0
-0.064923 -0.074005 0
-0.054120 -0.069484 0
-0.043771 -0.063580 0
-0.034114 -0.056489 0
-0.025370 -0.048465 0
-0.017731 -0.039810 0
-0.011352 -0.030871 0
-0.006348 -0.022023 0
-0.002783 -0.013660 0
-0.000677 -0.006186 0
0.000000 -0.000000 0
0.000000 -0.000000 0
-0.001033 0.013486 0
-0.003811 0.025661 0
-0.008044 0.036449 0
-0.013475 0.045831 0
-0.019879 0.053832 0
-0.027061 0.060505 0
-0.034853 0.065918 0
-0.043107 0.070149 0
-0.051699 0.073274 0
-0.060518 0.075365 0
-0.069467 0.076484 0
-0.078457 0.076683 0
-0.087407 0.076000 0
-0.096242 0.074465 0
-0.104889 0.072098 0
-0.113275 0.068913 0
-0.121329 0.064921 0
-0.128980 0.060130 0
-0.136154 0.054554 0
-0.142777 0.048212 0
-0.148772 0.041131 0
-0.154063 0.033350 0
-0.158571 0.024922 0
-0.162218 0.015918 0
-0.164925 0.006425 0
-0.166618 -0.003450 0
-0.167227 -0.013580 0
-0.166688 -0.023818 0
-0.164947 -0.033996 0
-0.161964 -0.043928 0
-0.157717 -0.053414 0
-0.152203 -0.062240 0
-0.145449 -0.070188 0
-0.137508 -0.077039 0
-0.128469 -0.082585 0
-0.118455 -0.086637 0
-0.107628 -0.089035 0
-0.096182 -0.089662 0
-0.084348 -0.088452 0
-0.072379 -0.085399 0
-0.060550 -0.080569 0
-0.049140 -0.074095 0
-0.038426 -0.066188 0
-0.028669 -0.057122 0
-0.020099 -0.047235 0
-0.012908 -0.036914 0
-0.007239 -0.026581 0
-0.003184 -0.016683 0
-0.000778 -0.007672 0
0.000000 -0.000000 0
0.000000 -0.000000 0
-0.001080 0.015437 0
-0.003981 0.029249 0
-0.008397 0.041392 0
-0.014059 0.051883 0
-0.020731 0.060776 0
-0.028209 0.068154 0
-0.036316 0.074113 0
-0.044901 0.078751 0
-0.053835 0.082163 0
-0.063004 0.084437 0
-0.072311 0.085645 0
-0.081666 0.085847 0
-0.090991 0.085091 0
-0.100211 0.083409 0
-0.109253 0.080823 0
-0.118049 0.077348 0
-0.126529 0.072995 0
-0.134623 0.067771 0
-0.142258 0.061689 0
-0.149360 0.054765 0
-0.155852 0.047024 0
-0.161655 0.038503 0
-0.166688 0.029256 0
-0.170865 0.019351 0
-0.174104 0.008876 0
-0.176318 -0.002059 0
-0.177427 -0.013322 0
-0.177353 -0.024758 0
-0.176028 -0.036189 0
-0.173394 -0.047415 0
-0.169411 -0.058214 0
-0.164059 -0.068349 0
-0.157346 -0.077574 0
-0.149309 -0.085638 0
-0.140025 -0.092294 0
-0.129610 -0.097315 0
-0.118220 -0.100503 0
-0.106059 -0.101702 0
-0.093367 -0.100812 0
-0.080422 -0.097803 0
-0.067527 -0.092723 0
-0.054999 -0.085703 0
-0.043157 -0.076960 0
-0.032305 -0.066792 0
-0.022721 -0.055572 0
-0.014637 -0.043731 0
-0.008234 -0.031747 0
-0.003633 -0.020122 0
-0.000891 -0.009370 0
0.000000 -0.000000 0
0.000000 -0.000000 0
-0.001119 0.017467 0
-0.004124 0.032979 0
-0.008696 0.046528 0
-0.014555 0.058166 0
-0.021456 0.067982 0
-0.029186 0.076089 0
-0.037565 0.082610 0
-0.046436 0.087668 0
-0.055667 0.091377 0
-0.065142 0.093841 0
-0.074763 0.095147 0
-0.084443 0.095363 0
-0.094103 0.094544 0
-0.103669 0.092727 0
-0.113073 0.089937 0
-0.122248 0.086189 0
-0.131127 0.081494 0
-0.139642 0.075858 0
-0.147723 0.069291 0
-0.155297 0.061806 0
-0.162286 0.053426 0
-0.168610 0.044185 0
-0.174186 0.034132 0
-0.178924 0.023334 0
-0.182733 0.011878 0
-0.185520 -0.000127 0
-0.187193 -0.012545 0
-0.187660 -0.025217 0
-0.186838 -0.037955 0
-0.184649 -0.050545 0
-0.181035 -0.062749 0
-0.175954 -0.074305 0
-0.169392 -0.084938 0
-0.161368 -0.094359 0
-0.151940 -0.102285 0
-0.141211 -0.108442 0
-0.129331 -0.112586 0
-0.116504 -0.114515 0
-0.102981 -0.114088 0
-0.089059 -0.111240 0
-0.075072 -0.105992 0
-0.061376 -0.098466 0
-0.048337 -0.088881 0
-0.036311 -0.077558 0
-0.025624 -0.064904 0
-0.016561 -0.051401 0
-0.009347 -0.037585 0
-0.004138 -0.024026 0
-0.001019 -0.011305 0
0.000000 -0.000000 0
0.000000 0.000000 0
-0.001151 0.019561 0
-0.004238 0.036825 0
-0.008936 0.051823 0
-0.014956 0.064643 0
-0.022044 0.075408 0
-0.029983 0.084264 0
-0.038587 0.091363 0
-0.047695 0.096852 0
-0.057173 0.100869 0
-0.066905 0.103533 0
-0.076792 0.104946 0
-0.086747 0.105186 0
-0.096694 0.104317 0
-0.106561 0.102379 0