# vtk DataFile Version 2.0
generated by CFD-lab course output (written by Tobias Neckel) 
ASCII

DATASET STRUCTURED_GRID
DIMENSIONS  51 51 1 
POINTS 2601 float

0.000000 0.000000 0
0.020000 0.000000 0
0.040000 0.000000 0
0.060000 0.000000 0
0.080000 0.000000 0
0.100000 0.000000 0
0.120000 0.000000 0
0.140000 0.000000 0
0.160000 0.000000 0
0.180000 0.000000 0
0.200000 0.000000 0
0.220000 0.000000 0
0.240000 0.000000 0
0.260000 0.000000 0
0.280000 0.000000 0
0.300000 0.000000 0
0.320000 0.000000 0
0.340000 0.000000 0
0.360000 0.000000 0
0.380000 0.000000 0
0.400000 0.000000 0
0.420000 0.000000 0
0.440000 0.000000 0
0.460000 0.000000 0
0.480000 0.000000 0
0.500000 0.000000 0
0.520000 0.000000 0
0.540000 0.000000 0
0.560000 0.000000 0
0.580000 0.000000 0
0.600000 0.000000 0
0.620000 0.000000 0
0.640000 0.000000 0
0.660000 0.000000 0
0.680000 0.000000 0
0.700000 0.000000 0
0.720000 0.000000 0
0.740000 0.000000 0
0.760000 0.000000 0
0.780000 0.000000 0
0.800000 0.000000 0
0.820000 0.000000 0
0.840000 0.000000 0
0.860000 0.000000 0
0.880000 0.000000 0
0.900000 0.000000 0
0.920000 0.000000 0
0.940000 0.000000 0
0.960000 0.000000 0
0.980000 0.000000 0
1.000000 0.000000 0
0.000000 0.020000 0
0.020000 0.020000 0
0.040000 0.020000 0
0.060000 0.020000 0
0.080000 0.020000 0
0.100000 0.020000 0
0.120000 0.020000 0
0.140000 0.020000 0
0.160000 0.020000 0
0.180000 0.020000 0
0.200000 0.020000 0
0.220000 0.020000 0
0.240000 0.020000 0
0.260000 0.020000 0
0.280000 0.020000 0
0.300000 0.020000 0
0.320000 0.020000 0
0.340000 0.020000 0
0.360000 0.020000 0
0.380000 0.020000 0
0.400000 0.020000 0
0.420000 0.020000 0
0.440000 0.020000 0
0.460000 0.020000 0
0.480000 0.020000 0
0.500000 0.020000 0
0.520000 0.020000 0
0.540000 0.020000 0
0.560000 0.020000 0
0.580000 0.020000 0
0.600000 0.020000 0
0.620000 0.020000 0
0.640000 0.020000 0
0.660000 0.020000 0
0.680000 0.020000 0
0.700000 0.020000 0
0.720000 0.020000 0
0.740000 0.020000 0
0.760000 0.020000 0
0.780000 0.020000 0
0.800000 0.020000 0
0.820000 0.020000 0
0.840000 0.020000 0
0.860000 0.020000 0
0.880000 0.020000 0
0.900000 0.020000 0
0.920000 0.020000 0
0.940000 0.020000 0
0.960000 0.020000 0
0.980000 0.020000 0
1.000000 0.020000 0
0.000000 0.040000 0
0.020000 0.040000 0
0.040000 0.040000 0
0.060000 0.040000 0
0.080000 0.040000 0
0.100000 0.040000 0
0.120000 0.040000 0
0.140000 0.040000 0
0.160000 0.040000 0
0.180000 0.040000 0
0.200000 0.040000 0
0.220000 0.040000 0
0.240000 0.040000 0
0.260000 0.040000 0
0.280000 0.040000 0
0.300000 0.040000 0
0.320000 0.040000 0
0.340000 0.040000 0
0.360000 0.040000 0
0.380000 0.040000 0
0.400000 0.040000 0
0.420000 0.040000 0
0.440000 0.040000 0
0.460000 0.040000 0
0.480000 0.040000 0
0.500000 0.040000 0
0.520000 0.040000 0
0.540000 0.040000 0
0.560000 0.040000 0
0.580000 0.040000 0
0.600000 0.040000 0
0.620000 0.040000 0
0.640000 0.040000 0
0.660000 0.040000 0
0.680000 0.040000 0
0.700000 0.040000 0
0.720000 0.040000 0
0.740000 0.040000 0
0.760000 0.040000 0
0.780000 0.040000 0
0.800000 0.040000 0
0.820000 0.040000 0
0.840000 0.040000 0
0.860000 0.040000 0
0.880000 0.040000 0
0.900000 0.040000 0
0.920000 0.040000 0
0.940000 0.040000 0
0.960000 0.040000 0
0.980000 0.040000 0
1.000000 0.040000 0
0.000000 0.060000 0
0.020000 0.060000 0
0.040000 0.060000 0
0.060000 0.060000 0
0.080000 0.060000 0
0.100000 0.060000 0
0.120000 0.060000 0
0.140000 0.060000 0
0.160000 0.060000 0
0.180000 0.060000 0
0.200000 0.060000 0
0.220000 0.060000 0
0.240000 0.060000 0
0.260000 0.060000 0
0.280000 0.060000 0
0.300000 0.060000 0
0.320000 0.060000 0
0.340000 0.060000 0
0.360000 0.060000 0
0.380000 0.060000 0
0.400000 0.060000 0
0.420000 0.060000 0
0.440000 0.060000 0
0.460000 0.060000 0
0.480000 0.060000 0
0.500000 0.060000 0
0.520000 0.060000 0
0.540000 0.060000 0
0.560000 0.060000 0
0.580000 0.060000 0
0.600000 0.060000 0
0.620000 0.060000 0
0.640000 0.060000 0
0.660000 0.060000 0
0.680000 0.060000 0
0.700000 0.060000 0
0.720000 0.060000 0
0.740000 0.060000 0
0.760000 0.060000 0
0.780000 0.060000 0
0.800000 0.060000 0
0.820000 0.060000 0
0.840000 0.060000 0
0.860000 0.060000 0
0.880000 0.060000 0
0.900000 0.060000 0
0.920000 0.060000 0
0.940000 0.060000 0
0.960000 0.060000 0
0.980000 0.060000 0
1.000000 0.060000 0
0.000000 0.080000 0
0.020000 0.080000 0
0.040000 0.080000 0
0.060000 0.080000 0
0.080000 0.080000 0
0.100000 0.080000 0
0.120000 0.080000 0
0.140000 0.080000 0
0.160000 0.080000 0
0.180000 0.080000 0
0.200000 0.080000 0
0.220000 0.080000 0
0.240000 0.080000 0
0.260000 0.080000 0
0.280000 0.080000 0
0.300000 0.080000 0
0.320000 0.080000 0
0.340000 0.080000 0
0.360000 0.080000 0
0.380000 0.080000 0
0.400000 0.080000 0
0.420000 0.080000 0
0.440000 0.080000 0
0.460000 0.080000 0
0.480000 0.080000 0
0.500000 0.080000 0
0.520000 0.080000 0
0.540000 0.080000 0
0.560000 0.080000 0
0.580000 0.080000 0
0.600000 0.080000 0
0.620000 0.080000 0
0.640000 0.080000 0
0.660000 0.080000 0
0.680000 0.080000 0
0.700000 0.080000 0
0.720000 0.080000 0
0.740000 0.080000 0
0.760000 0.080000 0
0.780000 0.080000 0
0.800000 0.080000 0
0.820000 0.080000 0
0.840000 0.080000 0
0.860000 0.080000 0
0.880000 0.080000 0
0.900000 0.080000 0
0.920000 0.080000 0
0.940000 0.080000 0
0.960000 0.080000 0
0.980000 0.080000 0
1.000000 0.080000 0
0.000000 0.100000 0
0.020000 0.100000 0
0.040000 0.100000 0
0.060000 0.100000 0
0.080000 0.100000 0
0.100000 0.100000 0
0.120000 0.100000 0
0.140000 0.100000 0
0.160000 0.100000 0
0.180000 0.100000 0
0.200000 0.100000 0
0.220000 0.100000 0
0.240000 0.100000 0
0.260000 0.100000 0
0.280000 0.100000 0
0.300000 0.100000 0
0.320000 0.100000 0
0.340000 0.100000 0
0.360000 0.100000 0
0.380000 0.100000 0
0.400000 0.100000 0
0.420000 0.100000 0
0.440000 0.100000 0
0.460000 0.100000 0
0.480000 0.100000 0
0.500000 0.100000 0
0.520000 0.100000 0
0.540000 0.100000 0
0.560000 0.100000 0
0.580000 0.100000 0
0.600000 0.100000 0
0.620000 0.100000 0
0.640000 0.100000 0
0.660000 0.100000 0
0.680000 0.100000 0
0.700000 0.100000 0
0.720000 0.100000 0
0.740000 0.100000 0
0.760000 0.100000 0
0.780000 0.100000 0
0.800000 0.100000 0
0.820000 0.100000 0
0.840000 0.100000 0
0.860000 0.100000 0
0.880000 0.100000 0
0.900000 0.100000 0
0.920000 0.100000 0
0.940000 0.100000 0
0.960000 0.100000 0
0.980000 0.100000 0
1.000000 0.100000 0
0.000000 0.120000 0
0.020000 0.120000 0
0.040000 0.120000 0
0.060000 0.120000 0
0.080000 0.120000 0
0.100000 0.120000 0
0.120000 0.120000 0
0.140000 0.120000 0
0.160000 0.120000 0
0.180000 0.120000 0
0.200000 0.120000 0
0.220000 0.120000 0
0.240000 0.120000 0
0.260000 0.120000 0
0.280000 0.120000 0
0.300000 0.120000 0
0.320000 0.120000 0
0.340000 0.120000 0
0.360000 0.120000 0
0.380000 0.120000 0
0.400000 0.120000 0
0.420000 0.120000 0
0.440000 0.120000 0
0.460000 0.120000 0
0.480000 0.120000 0
0.500000 0.120000 0
0.520000 0.120000 0
0.540000 0.120000 0
0.560000 0.120000 0
0.580000 0.120000 0
0.600000 0.120000 0
0.620000 0.120000 0
0.640000 0.120000 0
0.660000 0.120000 0
0.680000 0.120000 0
0.700000 0.120000 0
0.720000 0.120000 0
0.740000 0.120000 0
0.760000 0.120000 0
0.780000 0.120000 0
0.800000 0.120000 0
0.820000 0.120000 0
0.840000 0.120000 0
0.860000 0.120000 0
0.880000 0.120000 0
0.900000 0.120000 0
0.920000 0.120000 0
0.940000 0.120000 0
0.960000 0.120000 0
0.980000 0.120000 0
1.000000 0.120000 0
0.000000 0.140000 0
0.020000 0.140000 0
0.040000 0.140000 0
0.060000 0.140000 0
0.080000 0.140000 0
0.100000 0.140000 0
0.120000 0.140000 0
0.140000 0.140000 0
0.160000 0.140000 0
0.180000 0.140000 0
0.200000 0.140000 0
0.220000 0.140000 0
0.240000 0.140000 0
0.260000 0.140000 0
0.280000 0.140000 0
0.300000 0.140000 0
0.320000 0.140000 0
0.340000 0.140000 0
0.360000 0.140000 0
0.380000 0.140000 0
0.400000 0.140000 0
0.420000 0.140000 0
0.440000 0.140000 0
0.460000 0.140000 0
0.480000 0.140000 0
0.500000 0.140000 0
0.520000 0.140000 0
0.540000 0.140000 0
0.560000 0.140000 0
0.580000 0.140000 0
0.600000 0.140000 0
0.620000 0.140000 0
0.640000 0.140000 0
0.660000 0.140000 0
0.680000 0.140000 0
0.700000 0.140000 0
0.720000 0.140000 0
0.740000 0.140000 0
0.760000 0.140000 0
0.780000 0.140000 0
0.800000 0.140000 0
0.820000 0.140000 0
0.840000 0.140000 0
0.860000 0.140000 0
0.880000 0.140000 0
0.900000 0.140000 0
0.920000 0.140000 0
0.940000 0.140000 0
0.960000 0.140000 0
0.980000 0.140000 0
1.000000 0.140000 0
0.000000 0.160000 0
0.020000 0.160000 0
0.040000 0.160000 0
0.060000 0.160000 0
0.080000 0.160000 0
0.100000 0.160000 0
0.120000 0.160000 0
0.140000 0.160000 0
0.160000 0.160000 0
0.180000 0.160000 0
0.200000 0.160000 0
0.220000 0.160000 0
0.240000 0.160000 0
0.260000 0.160000 0
0.280000 0.160000 0
0.300000 0.160000 0
0.320000 0.160000 0
0.340000 0.160000 0
0.360000 0.160000 0
0.380000 0.160000 0
0.400000 0.160000 0
0.420000 0.160000 0
0.440000 0.160000 0
0.460000 0.160000 0
0.480000 0.160000 0
0.500000 0.160000 0
0.520000 0.160000 0
0.540000 0.160000 0
0.560000 0.160000 0
0.580000 0.160000 0
0.600000 0.160000 0
0.620000 0.160000 0
0.640000 0.160000 0
0.660000 0.160000 0
0.680000 0.160000 0
0.700000 0.160000 0
0.720000 0.160000 0
0.740000 0.160000 0
0.760000 0.160000 0
0.780000 0.160000 0
0.800000 0.160000 0
0.820000 0.160000 0
0.840000 0.160000 0
0.860000 0.160000 0
0.880000 0.160000 0
0.900000 0.160000 0
0.920000 0.160000 0
0.940000 0.160000 0
0.960000 0.160000 0
0.980000 0.160000 0
1.000000 0.160000 0
0.000000 0.180000 0
0.020000 0.180000 0
0.040000 0.180000 0
0.060000 0.180000 0
0.080000 0.180000 0
0.100000 0.180000 0
0.120000 0.180000 0
0.140000 0.180000 0
0.160000 0.180000 0
0.180000 0.180000 0
0.200000 0.180000 0
0.220000 0.180000 0
0.240000 0.180000 0
0.260000 0.180000 0
0.280000 0.180000 0
0.300000 0.180000 0
0.320000 0.180000 0
0.340000 0.180000 0
0.360000 0.180000 0
0.380000 0.180000 0
0.400000 0.180000 0
0.420000 0.180000 0
0.440000 0.180000 0
0.460000 0.180000 0
0.480000 0.180000 0
0.500000 0.180000 0
0.520000 0.180000 0
0.540000 0.180000 0
0.560000 0.180000 0
0.580000 0.180000 0
0.600000 0.180000 0
0.620000 0.180000 0
[...]
POINT_DATA 2601 

VECTORS velocity float
0.000000 0.000000 0
0.000000 0.000000 0
-0.000000 0.000000 0
-0.000000 0.000000 0
-0.000000 0.000000 0
-0.000000 0.000000 0
0.000000 0.000000 0
0.000000 0.000000 0
0.000000 0.000000 0
0.000000 0.000000 0
0.000000 0.000000 0
-0.000000 0.000000 0
-0.000000 0.000000 0
-0.000000 0.000000 0
-0.000000 0.000000 0
-0.000000 0.000000 0
-0.000000 0.000000 0
0.000000 0.000000 0
0.000000 0.000000 0
0.000000 0.000000 0
0.000000 0.000000 0
-0.000000 0.000000 0
-0.000000 0.000000 0
-0.000000 0.000000 0
-0.000000 0.000000 0
-0.000000 0.000000 0
-0.000000 0.000000 0
-0.000000 0.000000 0
-0.000000 0.000000 0
-0.000000 0.000000 0
-0.000000 0.000000 0
-0.000000 0.000000 0
-0.000000 0.000000 0
-0.000000 0.000000 0
-0.000000 0.000000 0
-0.000000 0.000000 0
-0.000000 0.000000 0
-0.000000 0.000000 0
-0.000000 0.000000 0
-0.000000 0.000000 0
-0.000000 0.000000 0
0.000000 0.000000 0
0.000000 0.000000 0
0.000000 0.000000 0
0.000000 0.000000 0
0.000000 0.000000 0
0.000000 0.000000 0
0.000000 0.000000 0
0.000000 0.000000 0
0.000000 0.000000 0
0.000000 0.000000 0
0.000000 0.000000 0
0.000059 -0.000059 0
0.000080 -0.000023 0
-0.000016 0.000055 0
-0.000257 0.000143 0
-0.000644 0.000227 0
-0.001166 0.000300 0
-0.001805 0.000361 0
-0.002542 0.000409 0
-0.003355 0.000446 0
-0.004226 0.000472 0
-0.005137 0.000489 0
-0.006071 0.000498 0
-0.007014 0.000500 0
-0.007952 0.000494 0
-0.008872 0.000482 0
-0.009762 0.000464 0
-0.010609 0.000439 0
-0.011401 0.000407 0
-0.012125 0.000369 0
-0.012769 0.000324 0
-0.013321 0.000272 0
-0.013770 0.000215 0
-0.014103 0.000151 0
-0.014312 0.000082 0
-0.014389 0.000009 0
-0.014327 -0.000067 0
-0.014122 -0.000145 0
-0.013774 -0.000223 0
-0.013285 -0.000298 0
-0.012661 -0.000370 0
-0.011911 -0.000435 0
-0.011049 -0.000493 0
-0.010093 -0.000540 0
-0.009061 -0.000575 0
-0.007977 -0.000596 0
-0.006866 -0.000603 0
-0.005755 -0.000594 0
-0.004671 -0.000571 0
-0.003642 -0.000532 0
-0.002693 -0.000479 0
-0.001848 -0.000414 0
-0.001126 -0.000338 0
-0.000544 -0.000255 0
-0.000112 -0.000167 0
0.000167 -0.000080 0
0.000299 0.000001 0
0.000302 0.000065 0
0.000211 0.000099 0
0.000081 0.000081 0
0.000000 -0.000000 0
0.000000 0.000000 0
0.000023 -0.000080 0
-0.000077 0.000075 0
-0.000386 0.000336 0
-0.000941 0.000628 0
-0.001745 0.000910 0
-0.002781 0.001163 0
-0.004021 0.001376 0
-0.005432 0.001550 0
-0.006979 0.001684 0
-0.008631 0.001781 0
-0.010354 0.001844 0
-0.012119 0.001877 0
-0.013899 0.001881 0
-0.015668 0.001859 0
-0.017400 0.001810 0
-0.019072 0.001737 0
-0.020659 0.001639 0
-0.022139 0.001516 0
-0.023489 0.001368 0
-0.024685 0.001196 0
-0.025705 0.001000 0
-0.026529 0.000782 0
-0.027136 0.000543 0
-0.027510 0.000286 0
-0.027637 0.000014 0
-0.027506 -0.000267 0
-0.027112 -0.000553 0
-0.026454 -0.000837 0
-0.025537 -0.001113 0
-0.024374 -0.001374 0
-0.022982 -0.001611 0
-0.021386 -0.001819 0
-0.019615 -0.001989 0
-0.017708 -0.002116 0
-0.015703 -0.002195 0
-0.013648 -0.002222 0
-0.011589 -0.002195 0
-0.009575 -0.002113 0
-0.007654 -0.001978 0
-0.005871 -0.001794 0
-0.004269 -0.001567 0
-0.002883 -0.001303 0
-0.001739 -0.001014 0
-0.000856 -0.000711 0
-0.000238 -0.000411 0
0.000125 -0.000135 0
0.000263 0.000088 0
0.000228 0.000220 0
0.000101 0.000210 0
0.000000 0.000000 0
0.000000 -0.000000 0
-0.000057 0.000017 0
-0.000349 0.000386 0
-0.000944 0.000920 0
-0.001868 0.001503 0
-0.003119 0.002067 0
-0.004673 0.002576 0
-0.006494 0.003011 0
-0.008542 0.003367 0
-0.010772 0.003644 0
-0.013139 0.003846 0
-0.015601 0.003978 0
-0.018119 0.004044 0
-0.020652 0.004049 0
-0.023166 0.003996 0
-0.025623 0.003887 0
-0.027991 0.003724 0
-0.030235 0.003507 0
-0.032322 0.003237 0
-0.034220 0.002914 0
-0.035897 0.002540 0
-0.037322 0.002116 0
-0.038468 0.001645 0
-0.039307 0.001132 0
-0.039817 0.000583 0
-0.039980 0.000005 0
-0.039783 -0.000592 0
-0.039219 -0.001197 0
-0.038288 -0.001797 0
-0.036999 -0.002378 0
-0.035368 -0.002925 0
-0.033420 -0.003424 0
-0.031189 -0.003859 0
-0.028716 -0.004218 0
-0.026051 -0.004487 0
-0.023250 -0.004656 0
-0.020372 -0.004717 0
-0.017483 -0.004668 0
-0.014648 -0.004506 0
-0.011930 -0.004235 0
-0.009393 -0.003864 0
-0.007090 -0.003402 0
-0.005072 -0.002868 0
-0.003373 -0.002281 0
-0.002018 -0.001668 0
-0.001015 -0.001061 0
-0.000351 -0.000501 0
0.000007 -0.000038 0
0.000120 0.000260 0
0.000075 0.000309 0
0.000000 0.000000 0
0.000000 -0.000000 0
-0.000153 0.000268 0
-0.000673 0.000962 0
-0.001593 0.001856 0
-0.002921 0.002803 0
-0.004641 0.003715 0
-0.006720 0.004538 0
-0.009115 0.005245 0
-0.011775 0.005826 0
-0.014651 0.006280 0
-0.017687 0.006611 0
-0.020835 0.006824 0
-0.024043 0.006928 0
-0.027266 0.006928 0
-0.030457 0.006830 0
-0.033572 0.006635 0
-0.036568 0.006348 0
-0.039403 0.005970 0
-0.042035 0.005501 0
-0.044423 0.004943 0
-0.046530 0.004299 0
-0.048316 0.003571 0
-0.049748 0.002767 0
-0.050794 0.001892 0
-0.051426 0.000959 0
-0.051623 -0.000020 0
-0.051370 -0.001028 0
-0.050659 -0.002048 0
-0.049492 -0.003057 0
-0.047879 -0.004034 0
-0.045841 -0.004953 0
-0.043408 -0.005790 0
-0.040622 -0.006523 0
-0.037532 -0.007127 0
-0.034200 -0.007583 0
-0.030691 -0.007874 0
-0.027079 -0.007989 0
-0.023442 -0.007919 0
-0.019859 -0.007666 0
-0.016408 -0.007233 0
-0.013163 -0.006634 0
-0.010194 -0.005888 0
-0.007557 -0.005021 0
-0.005300 -0.004067 0
-0.003453 -0.003069 0
-0.002027 -0.002079 0
-0.001013 -0.001158 0
-0.000378 -0.000382 0
-0.000061 0.000153 0
0.000025 0.000330 0
0.000000 0.000000 0
0.000000 -0.000000 0
-0.000252 0.000689 0
-0.001013 0.001827 0
-0.002278 0.003169 0
-0.004029 0.004551 0
-0.006230 0.005865 0
-0.008838 0.007049 0
-0.011799 0.008066 0
-0.015057 0.008903 0
-0.018551 0.009556 0
-0.022223 0.010031 0
-0.026015 0.010334 0
-0.029868 0.010476 0
-0.033730 0.010462 0
-0.037547 0.010301 0
-0.041267 0.009997 0
-0.044840 0.009554 0
-0.048216 0.008973 0
-0.051347 0.008257 0
-0.054186 0.007409 0
-0.056687 0.006433 0
-0.058806 0.005335 0
-0.060504 0.004123 0
-0.061745 0.002810 0
-0.062496 0.001412 0
-0.062735 -0.000051 0
-0.062444 -0.001556 0
-0.061614 -0.003075 0
-0.060248 -0.004577 0
-0.058357 -0.006029 0
-0.055966 -0.007396 0
-0.053108 -0.008643 0
-0.049830 -0.009735 0
-0.046191 -0.010640 0
-0.042258 -0.011328 0
-0.038106 -0.011776 0
-0.033821 -0.011966 0
-0.029491 -0.011888 0
-0.025206 -0.011540 0
-0.021058 -0.010931 0
-0.017132 -0.010078 0
-0.013508 -0.009008 0
-0.010255 -0.007761 0
-0.007428 -0.006386 0
-0.005066 -0.004942 0
-0.003187 -0.003501 0
-0.001786 -0.002150 0
-0.000835 -0.000990 0
-0.000279 -0.000142 0
-0.000037 0.000248 0
0.000000 0.000000 0
0.000000 -0.000000 0
-0.000350 0.001282 0
-0.001354 0.002989 0
-0.002969 0.004871 0
-0.005147 0.006754 0
-0.007834 0.008523 0
-0.010970 0.010106 0
-0.014491 0.011464 0
-0.018331 0.012578 0
-0.022424 0.013447 0
-0.026705 0.014074 0
-0.031108 0.014470 0
-0.035571 0.014644 0
-0.040034 0.014607 0
-0.044438 0.014366 0
-0.048723 0.013928 0
-0.052835 0.013297 0
-0.056718 0.012477 0
-0.060316 0.011470 0
-0.063578 0.010282 0
-0.066452 0.008919 0
-0.068890 0.007389 0
-0.070847 0.005705 0
-0.072283 0.003884 0
-0.073164 0.001950 0
-0.073461 -0.000073 0
-0.073157 -0.002149 0
-0.072241 -0.004244 0
-0.070715 -0.006314 0
-0.068591 -0.008316 0
-0.065895 -0.010202 0
-0.062664 -0.011926 0
-0.058949 -0.013439 0
-0.054812 -0.014700 0
-0.050327 -0.015667 0
-0.045579 -0.016310 0
-0.040661 -0.016604 0
-0.035670 -0.016534 0
-0.030709 -0.016099 0
-0.025879 -0.015308 0
-0.021279 -0.014184 0
-0.016998 -0.012764 0
-0.013118 -0.011100 0
-0.009704 -0.009256 0
-0.006803 -0.007311 0
-0.004442 -0.005359 0
-0.002626 -0.003509 0
-0.001332 -0.001890 0
-0.000514 -0.000646 0
-0.000101 0.000051 0
0.000000 0.000000 0
0.000000 0.000000 0
-0.000444 0.002044 0
-0.001687 0.004446 0
-0.003648 0.006962 0
-0.006251 0.009415 0
-0.009419 0.011687 0
-0.013077 0.013705 0
-0.017148 0.015428 0
-0.021557 0.016837 0
-0.026231 0.017930 0
-0.031098 0.018715 0
-0.036087 0.019201 0
-0.041132 0.019402 0
-0.046166 0.019328 0
-0.051126 0.018990 0
-0.055948 0.018395 0
-0.060572 0.017548 0
-0.064936 0.016454 0
-0.068983 0.015118 0
-0.072653 0.013545 0
-0.075891 0.011745 0
-0.078646 0.009730 0
-0.080867 0.007516 0
-0.082510 0.005126 0
-0.083538 0.002590 0
-0.083920 -0.000058 0
-0.083635 -0.002776 0
-0.082671 -0.005517 0
-0.081027 -0.008227 0
-0.078715 -0.010849 0
-0.075762 -0.013323 0
-0.072205 -0.015589 0
-0.068097 -0.017588 0
-0.063505 -0.019261 0
-0.058507 -0.020560 0
-0.053195 -0.021442 0
-0.047668 -0.021875 0
-0.042034 -0.021840 0
-0.036405 -0.021331 0
-0.030894 -0.020362 0
-0.025611 -0.018959 0
-0.020659 -0.017169 0
-0.016130 -0.015056 0
-0.012103 -0.012701 0
-0.008636 -0.010203 0
-0.005767 -0.007678 0
-0.003509 -0.005260 0
-0.001851 -0.003102 0
-0.000757 -0.001373 0
-0.000166 -0.000266 0
0.000000 0.000000 0
0.000000 0.000000 0
-0.000533 0.002970 0
-0.002007 0.006193 0
-0.004305 0.009434 0
-0.007324 0.012525 0
-0.010964 0.015349 0
-0.015133 0.017835 0
-0.019741 0.019945 0
-0.024704 0.021662 0
-0.029941 0.022988 0
-0.035373 0.023931 0
-0.040927 0.024504 0
-0.046530 0.024723 0
-0.052112 0.024601 0
-0.057605 0.024148 0
-0.062943 0.023374 0
-0.068060 0.022285 0
-0.072892 0.020888 0
-0.077376 0.019187 0
-0.081450 0.017191 0
-0.085054 0.014912 0
-0.088132 0.012364 0
-0.090631 0.009569 0
-0.092503 0.006556 0
-0.093706 0.003360 0
-0.094207 0.000024 0
-0.093979 -0.003399 0
-0.093009 -0.006852 0
-0.091293 -0.010269 0
-0.088841 -0.013581 0
-0.085678 -0.016713 0
-0.081840 -0.019590 0
-0.077382 -0.022139 0
-0.072371 -0.024289 0
-0.066891 -0.025977 0
-0.061037 -0.027150 0
-0.054916 -0.027765 0
-0.048644 -0.027797 0
-0.042343 -0.027239 0
-0.036139 -0.026102 0
-0.030154 -0.024419 0
-0.024505 -0.022245 0
-0.019299 -0.019656 0
-0.014626 -0.016750 0
-0.010561 -0.013647 0
-0.007152 -0.010486 0
-0.004428 -0.007425 0
-0.002387 -0.004641 0
-0.001004 -0.002331 0
-0.000231 -0.000706 0
0.000000 0.000000 0
0.000000 0.000000 0
-0.000619 0.004051 0
-0.002313 0.008218 0
-0.004936 0.012278 0
-0.008357 0.016073 0
-0.012454 0.019496 0
-0.017118 0.022482 0
-0.022248 0.024999 0
-0.027747 0.027037 0
-0.033528 0.028600 0
-0.039507 0.029701 0
-0.045605 0.030357 0
-0.051746 0.030586 0
-0.057856 0.030403 0
-0.063865 0.029821 0
-0.069703 0.028850 0
-0.075301 0.027497 0
-0.080593 0.025770 0
-0.085512 0.023675 0
-0.089992 0.021224 0
-0.093971 0.018428 0
-0.097389 0.015307 0
-0.100188 0.011887 0
-0.102318 0.008201 0
-0.103731 0.004293 0
-0.104390 0.000215 0
-0.104265 -0.003974 0
-0.103338 -0.008203 0
-0.101601 -0.012394 0
-0.099060 -0.016464 0
-0.095735 -0.020325 0
-0.091663 -0.023885 0
-0.086896 -0.027056 0
-0.081502 -0.029752 0
-0.075565 -0.031895 0
-0.069187 -0.033418 0
-0.062479 -0.034268 0
-0.055567 -0.034412 0
-0.048583 -0.033836 0
-0.041665 -0.032551 0
-0.034950 -0.030593 0
-0.028569 -0.028024 0
-0.022647 -0.024935 0
-0.017290 -0.021439 0
-0.012588 -0.017677 0
-0.008606 -0.013811 0
-0.005386 -0.010026 0
-0.002940 -0.006525 0
-0.001256 -0.003528 0
-0.000296 -0.001270 0
0.000000 0.000000 0
0.000000 0.000000 0
-0.000699 0.005282 0
-0.002603 0.010510 0
-0.005537 0.015478 0
-0.009342 0.020042 0
-0.013878 0.024111 0
-0.019019 0.027629 0
-0.024650 0.030574 0
-0.030666 0.032943 0
-0.036971 0.034748 0
-0.043477 0.036007 0
-0.050099 0.036742 0
-0.056759 0.036974 0
-0.063380 0.036720 0
-0.069890 0.035995 0
-0.076217 0.034811 0
-0.082289 0.033176 0
-0.088038 0.031098 0
-0.093394 0.028586 0
-0.098289 0.025651 0
-0.102658 0.022309 0
-0.106437 0.018581 0
-0.109565 0.014498 0
-0.111987 0.010098 0
-0.113652 0.005432 0
-0.114516 0.000559 0
-0.114546 -0.004451 0
-0.113715 -0.009517 0
-0.112012 -0.014548 0
-0.109437 -0.019447 0
-0.106005 -0.024109 0
-0.101748 -0.028430 0
-0.096715 -0.032301 0
-0.090973 -0.035620 0
-0.084607 -0.038293 0
-0.077720 -0.040236 0
-0.070430 -0.041385 0
-0.062872 -0.041693 0
-0.055188 -0.041141 0
-0.047529 -0.039736 0
-0.040047 -0.037515 0
-0.032894 -0.034548 0
-0.026210 -0.030935 0
-0.020123 -0.026809 0
-0.014739 -0.022331 0
-0.010144 -0.017688 0
-0.006395 -0.013091 0
-0.003519 -0.008771 0
-0.001518 -0.004975 0
-0.000362 -0.001963 0
0.000000 0.000000 0
0.000000 0.000000 0
-0.000775 0.006654 0
-0.002877 0.013054 0
-0.006103 0.019016 0
-0.010274 0.024415 0
-0.015228 0.029174 0
-0.020824 0.033255 0
-0.026933 0.036647 0
-0.033443 0.039358 0
-0.040250 0.041410 0
-0.047260 0.042828 0
-0.054386 0.043639 0
-0.061546 0.043867 0
-0.068662 0.043535 0
-0.075660 0.042658 0
-0.082465 0.041249 0
-0.089006 0.039318 0
-0.095211 0.036874 0
-0.101010 0.033927 0
-0.106333 0.030488 0
-0.111111 0.026576 0
-0.115277 0.022214 0
-0.118767 0.017437 0
-0.121521 0.012288 0
-0.123484 0.006823 0
-0.124605 0.001108 0
-0.124844 -0.004775 0
-0.124170 -0.010736 0
-0.122562 -0.016673 0
-0.120013 -0.022472 0
-0.116532 -0.028014 0
-0.112144 -0.033175 0
-0.106894 -0.037831 0
-0.100844 -0.041860 0
-0.094078 -0.045148 0
-0.086701 -0.047594 0
-0.078837 -0.049116 0
-0.070625 -0.049655 0
-0.062221 -0.049179 0
-0.053791 -0.047691 0
-0.045504 -0.045227 0
-0.037530 -0.041862 0
-0.030033 -0.037706 0
-0.023161 -0.032910 0
-0.017044 -0.027655 0
-0.011789 -0.022156 0
-0.007470 -0.016651 0
-0.004134 -0.011402 0
-0.001793 -0.006686 0
-0.000431 -0.002788 0
0.000000 0.000000 0
0.000000 -0.000000 0
-0.000846 0.008159 0
-0.003133 0.015837 0
-0.006634 0.022874 0
-0.011148 0.029168 0
-0.016495 0.034661 0
-0.022520 0.039335 0
-0.029082 0.043193 0
-0.036060 0.046260 0
-0.043344 0.048565 0
-0.050835 0.050143 0
-0.058442 0.051028 0
-0.066083 0.051250 0
-0.073676 0.050833 0
-0.081147 0.049798 0
-0.088422 0.048157 0
-0.095426 0.045922 0
-0.102089 0.043102 0
-0.108338 0.039708 0
-0.114101 0.035752 0
-0.119308 0.031252 0
-0.123889 0.026237 0
-0.127777 0.020742 0
-0.130905 0.014815 0
-0.133214 0.008516 0
-0.134648 0.001920 0
-0.135158 -0.004886 0
-0.134704 -0.011799 0
-0.133257 -0.018705 0
-0.130801 -0.025476 0
-0.127337 -0.031978 0
-0.122879 -0.038068 0
-0.117466 -0.043601 0
-0.111154 -0.048435 0
-0.104025 -0.052435 0
-0.096183 -0.055478 0
-0.087753 -0.057461 0
-0.078885 -0.058309 0
-0.069745 -0.057975 0
-0.060512 -0.056453 0
-0.051377 -0.053775 0
-0.042532 -0.050019 0
-0.034164 -0.045305 0
-0.026447 -0.039798 0
-0.019538 -0.033703 0
-0.013567 -0.027262 0
-0.008631 -0.020746 0
-0.004796 -0.014448 0
-0.002089 -0.008678 0
-0.000504 -0.003756 0
0.000000 0.000000 0
0.000000 -0.000000 0
-0.000912 0.009787 0
-0.003370 0.018842 0
-0.007125 0.027031 0
-0.011957 0.034276 0
-0.017671 0.040546 0
-0.024096 0.045842 0
-0.031082 0.050187 0
-0.038499 0.053620 0
-0.046232 0.056185 0
-0.054177 0.057926 0
-0.062241 0.058887 0
-0.070339 0.059101 0
-0.078391 0.058600 0
-0.086320 0.057403 0
-0.094052 0.055528 0
-0.101514 0.052985 0
-0.108633 0.049786 0
-0.115338 0.045939 0
-0.121554 0.041458 0
-0.127210 0.036364 0
-0.132234 0.030683 0
-0.136553 0.024453 0
-0.140100 0.017726 0
-0.142806 0.010565 0
-0.144609 0.003052 0
-0.145452 -0.004720 0
-0.145286 -0.012637 0
-0.144072 -0.020575 0
-0.141782 -0.028392 0
-0.138406 -0.035936 0
-0.133948 -0.043046 0
-0.128436 -0.049556 0
-0.121919 -0.055301 0
-0.114472 -0.060119 0
-0.106197 -0.063866 0
-0.097222 -0.066414 0
-0.087700 -0.067664 0
-0.077810 -0.067552 0
-0.067748 -0.066058 0
-0.057724 -0.063207 0
-0.047954 -0.059075 0
-0.038653 -0.053791 0
-0.030026 -0.047536 0
-0.022258 -0.040536 0
-0.015508 -0.033063 0
-0.009899 -0.025422 0
-0.005518 -0.017944 0
-0.002412 -0.010977 0
-0.000585 -0.004877 0
0.000000 -0.000000 0
0.000000 -0.000000 0
-0.000971 0.011528 0
-0.003586 0.022051 0
-0.007574 0.031463 0
-0.012698 0.039714 0
-0.018748 0.046800 0
-0.025541 0.052745 0
-0.032919 0.057596 0
-0.040743 0.061409 0
-0.048892 0.064242 0
-0.057260 0.066152 0
-0.065753 0.067190 0
-0.074283 0.067400 0
-0.082771 0.066815 0
-0.091139 0.065459 0
-0.099314 0.063351 0
-0.107224 0.060503 0
-0.114796 0.056926 0
-0.121958 0.052628 0
-0.128636 0.047624 0
-0.134758 0.041932 0
-0.140249 0.035581 0
-0.145034 0.028608 0
-0.149038 0.021067 0
-0.152191 0.013025 0
-0.154420 0.004566 0
-0.155661 -0.004209 0
-0.155853 -0.013179 0
-0.154947 -0.022208 0
-0.152902 -0.031142 0
-0.149693 -0.039812 0
-0.145313 -0.048038 0
-0.139776 -0.055631 0
-0.133122 -0.062399 0
-0.125415 -0.068157 0
-0.116753 -0.072728 0
-0.107262 -0.075958 0
-0.097101 -0.077720 0
-0.086458 -0.077928 0
-0.075545 -0.076540 0
-0.064593 -0.073569 0
-0.053847 -0.069089 0
-0.043551 -0.063232 0
-0.033943 -0.056193 0
-0.025243 -0.048222 0
-0.017642 -0.039622 0
-0.011296 -0.030735 0
-0.006316 -0.021934 0
-0.002769 -0.013612 0
-0.000674 -0.006168 0
0.000000 -0.000000 0
0.000000 -0.000000 0
-0.001025 0.013372 0
-0.003779 0.025445 0
-0.007977 0.036144 0
-0.013363 0.045451 0
-0.019717 0.053389 0
-0.026844 0.060012 0
-0.034576 0.065388 0
-0.042771 0.069593 0
-0.051301 0.072703 0
-0.060060 0.074788 0
-0.068948 0.075910 0
-0.077881 0.076119 0
-0.086777 0.075455 0
-0.095560 0.073946 0
-0.104159 0.071613 0
-0.112501 0.068467 0
-0.120516 0.064520 0
-0.128133 0.059780 0
-0.135277 0.054259 0
-0.141876 0.047976 0
-0.147853 0.040958 0
-0.153130 0.033243 0
-0.157630 0.024883 0
-0.161274 0.015947 0
-0.163984 0.006522 0
-0.165685 -0.003286 0
-0.166307 -0.013351 0
-0.165786 -0.023526 0
-0.164068 -0.033646 0
-0.161114 -0.043525 0
-0.156899 -0.052962 0
-0.151424 -0.061748 0
-0.144712 -0.069662 0
-0.136817 -0.076488 0
-0.127829 -0.082019 0
-0.117869 -0.086065 0
-0.107098 -0.088467 0
-0.095711 -0.089109 0
-0.083936 -0.087923 0
-0.072026 -0.084905 0
-0.060255 -0.080118 0
-0.048901 -0.073695 0
-0.038240 -0.065843 0
-0.028530 -0.056837 0
-0.020001 -0.047011 0
-0.012845 -0.036748 0
-0.007204 -0.026470 0
-0.003168 -0.016619 0
-0.000774 -0.007647 0
0.000000 -0.000000 0
0.000000 -0.000000 0
-0.001071 0.015307 0
-0.003948 0.029004 0
-0.008329 0.041048 0
-0.013948 0.051454 0
-0.020569 0.060279 0
-0.027991 0.067604 0
-0.036040 0.073523 0
-0.044565 0.078134 0
-0.053437 0.081531 0
-0.062547 0.083799 0
-0.071794 0.085012 0
-0.081093 0.085228 0
-0.090365 0.084494 0
-0.099534 0.082841 0
-0.108530 0.080292 0
-0.117283 0.076861 0
-0.125725 0.072557 0
-0.133785 0.067390 0
-0.141391 0.061368 0
-0.148470 0.054508 0
-0.154944 0.046835 0
-0.160734 0.038385 0
-0.165758 0.029211 0
-0.169932 0.019379 0
-0.173172 0.008977 0
-0.175393 -0.001885 0
-0.176513 -0.013078 0
-0.176455 -0.024447 0
-0.175151 -0.035815 0
-0.172542 -0.046982 0
-0.168589 -0.057728 0
-0.163272 -0.067818 0
-0.156598 -0.077005 0
-0.148605 -0.085040 0
-0.139369 -0.091677 0
-0.129005 -0.096689 0
-0.117671 -0.099878 0
-0.105567 -0.101090 0
-0.092935 -0.100224 0
-0.080050 -0.097250 0
-0.067214 -0.092214 0
-0.054743 -0.085247 0
-0.042956 -0.076564 0
-0.032155 -0.066461 0
-0.022614 -0.055307 0
-0.014568 -0.043533 0
-0.008195 -0.031611 0
-0.003616 -0.020042 0
-0.000886 -0.009336 0
0.000000 -0.000000 0
0.000000 0.000000 0
-0.001110 0.017320 0
-0.004091 0.032704 0
-0.008629 0.046144 0
-0.014445 0.057690 0
-0.021296 0.067432 0
-0.028972 0.075482 0
-0.037294 0.081961 0
-0.046106 0.086991 0
-0.055277 0.090685 0
-0.064693 0.093145 0
-0.074257 0.094457 0
-0.083882 0.094690 0
-0.093489 0.093895 0
-0.103007 0.092111 0
-0.112366 0.089362 0
-0.121501 0.085662 0
-0.130343 0.081021 0
-0.138827 0.075446 0
-0.146880 0.068944 0
-0.154431 0.061529 0
-0.161403 0.053222 0
-0.167714 0.044057 0
-0.173282 0.034081 0
-0.178016 0.023361 0
-0.181826 0.011983 0
-0.184618 0.000055 0
-0.186300 -0.012289 0
-0.186781 -0.024889 0
-0.185977 -0.037559 0
-0.183810 -0.050086 0
-0.180222 -0.062233 0
-0.175172 -0.073739 0
-0.168646 -0.084329 0
-0.160662 -0.093717 0
-0.151278 -0.101619 0
-0.140597 -0.107763 0
-0.128770 -0.111905 0
-0.115998 -0.113845 0
-0.102533 -0.113441 0
-0.088671 -0.110626 0
-0.074743 -0.105424 0
-0.061106 -0.097953 0
-0.048124 -0.088432 0
-0.036149 -0.077178 0
-0.025509 -0.064597 0
-0.016486 -0.051168 0
-0.009304 -0.037422 0
-0.004119 -0.023928 0
-0.001014 -0.011262 0
0.000000 -0.000000 0
0.000000 0.000000 0
-0.001142 0.019399 0
-0.004207 0.036522 0
-0.008872 0.051401 0
-0.014849 0.064121 0
-0.021890 0.074807 0
-0.029776 0.083602 0
-0.038324 0.090657 0
-0.047376 0.096117 0
-0.056796 0.100119 0
-0.066472 0.102780 0
-0.076304 0.104201 0
-0.086207 0.104460 0
-0.096104 0.103618 0
-0.105925 0.101718 0
-0.115605 0.098786 0