# vtk DataFile Version 2.0
generated by CFD-lab course output (written by Tobias Neckel) 
ASCII

DATASET STRUCTURED_GRID
DIMENSIONS  51 51 1 
POINTS 2601 float

0.000000 0.000000 0
0.020000 0.000000 0
0.040000 0.000000 0
0.060000 0.000000 0
0.080000 0.000000 0
0.100000 0.000000 0
0.120000 0.000000 0
0.140000 0.000000 0
0.160000 0.000000 0
0.180000 0.000000 0
0.200000 0.000000 0
0.220000 0.000000 0
0.240000 0.000000 0
0.260000 0.000000 0
0.280000 0.000000 0
0.300000 0.000000 0
0.320000 0.000000 0
0.340000 0.000000 0
0.360000 0.000000 0
0.380000 0.000000 0
0.400000 0.000000 0
0.420000 0.000000 0
0.440000 0.000000 0
0.460000 0.000000 0
0.480000 0.000000 0
0.500000 0.000000 0
0.520000 0.000000 0
0.540000 0.000000 0
0.560000 0.000000 0
0.580000 0.000000 0
0.600000 0.000000 0
0.620000 0.000000 0
0.640000 0.000000 0
0.660000 0.000000 0
0.680000 0.000000 0
0.700000 0.000000 0
0.720000 0.000000 0
0.740000 0.000000 0
0.760000 0.000000 0
0.780000 0.000000 0
0.800000 0.000000 0
0.820000 0.000000 0
0.840000 0.000000 0
0.860000 0.000000 0
0.880000 0.000000 0
0.900000 0.000000 0
0.920000 0.000000 0
0.940000 0.000000 0
0.960000 0.000000 0
0.980000 0.000000 0
1.000000 0.000000 0
0.000000 0.020000 0
0.020000 0.020000 0
0.040000 0.020000 0
0.060000 0.020000 0
0.080000 0.020000 0
0.100000 0.020000 0
0.120000 0.020000 0
0.140000 0.020000 0
0.160000 0.020000 0
0.180000 0.020000 0
0.200000 0.020000 0
0.220000 0.020000 0
0.240000 0.020000 0
0.260000 0.020000 0
0.280000 0.020000 0
0.300000 0.020000 0
0.320000 0.020000 0
0.340000 0.020000 0
0.360000 0.020000 0
0.380000 0.020000 0
0.400000 0.020000 0
0.420000 0.020000 0
0.440000 0.020000 0
0.460000 0.020000 0
0.480000 0.020000 0
0.500000 0.020000 0
0.520000 0.020000 0
0.540000 0.020000 0
0.560000 0.020000 0
0.580000 0.020000 0
0.600000 0.020000 0
0.620000 0.020000 0
0.640000 0.020000 0
0.660000 0.020000 0
0.680000 0.020000 0
0.700000 0.020000 0
0.720000 0.020000 0
0.740000 0.020000 0
0.760000 0.020000 0
0.780000 0.020000 0
0.800000 0.020000 0
0.820000 0.020000 0
0.840000 0.020000 0
0.860000 0.020000 0
0.880000 0.020000 0
0.900000 0.020000 0
0.920000 0.020000 0
0.940000 0.020000 0
0.960000 0.020000 0
0.980000 0.020000 0
1.000000 0.020000 0
0.000000 0.040000 0
0.020000 0.040000 0
0.040000 0.040000 0
0.060000 0.040000 0
0.080000 0.040000 0
0.100000 0.040000 0
0.120000 0.040000 0
0.140000 0.040000 0
0.160000 0.040000 0
0.180000 0.040000 0
0.200000 0.040000 0
0.220000 0.040000 0
0.240000 0.040000 0
0.260000 0.040000 0
0.280000 0.040000 0
0.300000 0.040000 0
0.320000 0.040000 0
0.340000 0.040000 0
0.360000 0.040000 0
0.380000 0.040000 0
0.400000 0.040000 0
0.420000 0.040000 0
0.440000 0.040000 0
0.460000 0.040000 0
0.480000 0.040000 0
0.500000 0.040000 0
0.520000 0.040000 0
0.540000 0.040000 0
0.560000 0.040000 0
0.580000 0.040000 0
0.600000 0.040000 0
0.620000 0.040000 0
0.640000 0.040000 0
0.660000 0.040000 0
0.680000 0.040000 0
0.700000 0.040000 0
0.720000 0.040000 0
0.740000 0.040000 0
0.760000 0.040000 0
0.780000 0.040000 0
0.800000 0.040000 0
0.820000 0.040000 0
0.840000 0.040000 0
0.860000 0.040000 0
0.880000 0.040000 0
0.900000 0.040000 0
0.920000 0.040000 0
0.940000 0.040000 0
0.960000 0.040000 0
0.980000 0.040000 0
1.000000 0.040000 0
0.000000 0.060000 0
0.020000 0.060000 0
0.040000 0.060000 0
0.060000 0.060000 0
0.080000 0.060000 0
0.100000 0.060000 0
0.120000 0.060000 0
0.140000 0.060000 0
0.160000 0.060000 0
0.180000 0.060000 0
0.200000 0.060000 0
0.220000 0.060000 0
0.240000 0.060000 0
0.260000 0.060000 0
0.280000 0.060000 0
0.300000 0.060000 0
0.320000 0.060000 0
0.340000 0.060000 0
0.360000 0.060000 0
0.380000 0.060000 0
0.400000 0.060000 0
0.420000 0.060000 0
0.440000 0.060000 0
0.460000 0.060000 0
0.480000 0.060000 0
0.500000 0.060000 0
0.520000 0.060000 0
0.540000 0.060000 0
0.560000 0.060000 0
0.580000 0.060000 0
0.600000 0.060000 0
0.620000 0.060000 0
0.640000 0.060000 0
0.660000 0.060000 0
0.680000 0.060000 0
0.700000 0.060000 0
0.720000 0.060000 0
0.740000 0.060000 0
0.760000 0.060000 0
0.780000 0.060000 0
0.800000 0.060000 0
0.820000 0.060000 0
0.840000 0.060000 0
0.860000 0.060000 0
0.880000 0.060000 0
0.900000 0.060000 0
0.920000 0.060000 0
0.940000 0.060000 0
0.960000 0.060000 0
0.980000 0.060000 0
1.000000 0.060000 0
0.000000 0.080000 0
0.020000 0.080000 0
0.040000 0.080000 0
0.060000 0.080000 0
0.080000 0.080000 0
0.100000 0.080000 0
0.120000 0.080000 0
0.140000 0.080000 0
0.160000 0.080000 0
0.180000 0.080000 0
0.200000 0.080000 0
0.220000 0.080000 0
0.240000 0.080000 0
0.260000 0.080000 0
0.280000 0.080000 0
0.300000 0.080000 0
0.320000 0.080000 0
0.340000 0.080000 0
0.360000 0.080000 0
0.380000 0.080000 0
0.400000 0.080000 0
0.420000 0.080000 0
0.440000 0.080000 0
0.460000 0.080000 0
0.480000 0.080000 0
0.500000 0.080000 0
0.520000 0.080000 0
0.540000 0.080000 0
0.560000 0.080000 0
0.580000 0.080000 0
0.600000 0.080000 0
0.620000 0.080000 0
0.640000 0.080000 0
0.660000 0.080000 0
0.680000 0.080000 0
0.700000 0.080000 0
0.720000 0.080000 0
0.740000 0.080000 0
0.760000 0.080000 0
0.780000 0.080000 0
0.800000 0.080000 0
0.820000 0.080000 0
0.840000 0.080000 0
0.860000 0.080000 0
0.880000 0.080000 0
0.900000 0.080000 0
0.920000 0.080000 0
0.940000 0.080000 0
0.960000 0.080000 0
0.980000 0.080000 0
1.000000 0.080000 0
0.000000 0.100000 0
0.020000 0.100000 0
0.040000 0.100000 0
0.060000 0.100000 0
0.080000 0.100000 0
0.100000 0.100000 0
0.120000 0.100000 0
0.140000 0.100000 0
0.160000 0.100000 0
0.180000 0.100000 0
0.200000 0.100000 0
0.220000 0.100000 0
0.240000 0.100000 0
0.260000 0.100000 0
0.280000 0.100000 0
0.300000 0.100000 0
0.320000 0.100000 0
0.340000 0.100000 0
0.360000 0.100000 0
0.380000 0.100000 0
0.400000 0.100000 0
0.420000 0.100000 0
0.440000 0.100000 0
0.460000 0.100000 0
0.480000 0.100000 0
0.500000 0.100000 0
0.520000 0.100000 0
0.540000 0.100000 0
0.560000 0.100000 0
0.580000 0.100000 0
0.600000 0.100000 0
0.620000 0.100000 0
0.640000 0.100000 0
0.660000 0.100000 0
0.680000 0.100000 0
0.700000 0.100000 0
0.720000 0.100000 0
0.740000 0.100000 0
0.760000 0.100000 0
0.780000 0.100000 0
0.800000 0.100000 0
0.820000 0.100000 0
0.840000 0.100000 0
0.860000 0.100000 0
0.880000 0.100000 0
0.900000 0.100000 0
0.920000 0.100000 0
0.940000 0.100000 0
0.960000 0.100000 0
0.980000 0.100000 0
1.000000 0.100000 0
0.000000 0.120000 0
0.020000 0.120000 0
0.040000 0.120000 0
0.060000 0.120000 0
0.080000 0.120000 0
0.100000 0.120000 0
0.120000 0.120000 0
0.140000 0.120000 0
0.160000 0.120000 0
0.180000 0.120000 0
0.200000 0.120000 0
0.220000 0.120000 0
0.240000 0.120000 0
0.260000 0.120000 0
0.280000 0.120000 0
0.300000 0.120000 0
0.320000 0.120000 0
0.340000 0.120000 0
0.360000 0.120000 0
0.380000 0.120000 0
0.400000 0.120000 0
0.420000 0.120000 0
0.440000 0.120000 0
0.460000 0.120000 0
0.480000 0.120000 0
0.500000 0.120000 0
0.520000 0.120000 0
0.540000 0.120000 0
0.560000 0.120000 0
0.580000 0.120000 0
0.600000 0.120000 0
0.620000 0.120000 0
0.640000 0.120000 0
0.660000 0.120000 0
0.680000 0.120000 0
0.700000 0.120000 0
0.720000 0.120000 0
0.740000 0.120000 0
0.760000 0.120000 0
0.780000 0.120000 0
0.800000 0.120000 0
0.820000 0.120000 0
0.840000 0.120000 0
0.860000 0.120000 0
0.880000 0.120000 0
0.900000 0.120000 0
0.920000 0.120000 0
0.940000 0.120000 0
0.960000 0.120000 0
0.980000 0.120000 0
1.000000 0.120000 0
0.000000 0.140000 0
0.020000 0.140000 0
0.040000 0.140000 0
0.060000 0.140000 0
0.080000 0.140000 0
0.100000 0.140000 0
0.120000 0.140000 0
0.140000 0.140000 0
0.160000 0.140000 0
0.180000 0.140000 0
0.200000 0.140000 0
0.220000 0.140000 0
0.240000 0.140000 0
0.260000 0.140000 0
0.280000 0.140000 0
0.300000 0.140000 0
0.320000 0.140000 0
0.340000 0.140000 0
0.360000 0.140000 0
0.380000 0.140000 0
0.400000 0.140000 0
0.420000 0.140000 0
0.440000 0.140000 0
0.460000 0.140000 0
0.480000 0.140000 0
0.500000 0.140000 0
0.520000 0.140000 0
0.540000 0.140000 0
0.560000 0.140000 0
0.580000 0.140000 0
0.600000 0.140000 0
0.620000 0.140000 0
0.640000 0.140000 0
0.660000 0.140000 0
0.680000 0.140000 0
0.700000 0.140000 0
0.720000 0.140000 0
0.740000 0.140000 0
0.760000 0.140000 0
0.780000 0.140000 0
0.800000 0.140000 0
0.820000 0.140000 0
0.840000 0.140000 0
0.860000 0.140000 0
0.880000 0.140000 0
0.900000 0.140000 0
0.920000 0.140000 0
0.940000 0.140000 0
0.960000 0.140000 0
0.980000 0.140000 0
1.000000 0.140000 0
0.000000 0.160000 0
0.020000 0.160000 0
0.040000 0.160000 0
0.060000 0.160000 0
0.080000 0.160000 0
0.100000 0.160000 0
0.120000 0.160000 0
0.140000 0.160000 0
0.160000 0.160000 0
0.180000 0.160000 0
0.200000 0.160000 0
0.220000 0.160000 0
0.240000 0.160000 0
0.260000 0.160000 0
0.280000 0.160000 0
0.300000 0.160000 0
0.320000 0.160000 0
0.340000 0.160000 0
0.360000 0.160000 0
0.380000 0.160000 0
0.400000 0.160000 0
0.420000 0.160000 0
0.440000 0.160000 0
0.460000 0.160000 0
0.480000 0.160000 0
0.500000 0.160000 0
0.520000 0.160000 0
0.540000 0.160000 0
0.560000 0.160000 0
0.580000 0.160000 0
0.600000 0.160000 0
0.620000 0.160000 0
0.640000 0.160000 0
0.660000 0.160000 0
0.680000 0.160000 0
0.700000 0.160000 0
0.720000 0.160000 0
0.740000 0.160000 0
0.760000 0.160000 0
0.780000 0.160000 0
0.800000 0.160000 0
0.820000 0.160000 0
0.840000 0.160000 0
0.860000 0.160000 0
0.880000 0.160000 0
0.900000 0.160000 0
0.920000 0.160000 0
0.940000 0.160000 0
0.960000 0.160000 0
0.980000 0.160000 0
1.000000 0.160000 0
0.000000 0.180000 0
0.020000 0.180000 0
0.040000 0.180000 0
0.060000 0.180000 0
0.080000 0.180000 0
0.100000 0.180000 0
0.120000 0.180000 0
0.140000 0.180000 0
0.160000 0.180000 0
0.180000 0.180000 0
0.200000 0.180000 0
0.220000 0.180000 0
0.240000 0.180000 0
0.260000 0.180000 0
0.280000 0.180000 0
0.300000 0.180000 0
0.320000 0.180000 0
0.340000 0.180000 0
0.360000 0.180000 0
0.380000 0.180000 0
0.400000 0.180000 0
0.420000 0.180000 0
0.440000 0.180000 0
0.460000 0.180000 0
0.480000 0.180000 0
0.500000 0.180000 0
0.520000 0.180000 0
0.540000 0.180000 0
0.560000 0.180000 0
0.580000 0.180000 0
0.600000 0.180000 0
0.620000 0.180000 0
[...]
POINT_DATA 2601 

VECTORS velocity float
0.000000 0.000000 0
0.000001 0.000000 0
0.000000 0.000000 0
-0.000000 0.000000 0
-0.000000 0.000000 0
-0.000000 0.000000 0
-0.000000 0.000000 0
0.000000 0.000000 0
0.000000 0.000000 0
0.000000 0.000000 0
0.000000 0.000000 0
-0.000000 0.000000 0
-0.000000 0.000000 0
-0.000000 0.000000 0
-0.000000 0.000000 0
-0.000000 0.000000 0
-0.000000 0.000000 0
0.000000 0.000000 0
0.000000 0.000000 0
0.000000 0.000000 0
0.000000 0.000000 0
-0.000000 0.000000 0
-0.000000 0.000000 0
-0.000000 0.000000 0
-0.000000 0.000000 0
-0.000000 0.000000 0
-0.000000 0.000000 0
-0.000000 0.000000 0
0.000000 0.000000 0
0.000000 0.000000 0
-0.000000 0.000000 0
-0.000000 0.000000 0
-0.000000 0.000000 0
-0.000000 0.000000 0
-0.000000 0.000000 0
-0.000000 0.000000 0
-0.000000 0.000000 0
-0.000000 0.000000 0
-0.000000 0.000000 0
-0.000000 0.000000 0
-0.000000 0.000000 0
-0.000000 0.000000 0
-0.000000 0.000000 0
-0.000000 0.000000 0
0.000000 0.000000 0
0.000000 0.000000 0
0.000000 0.000000 0
0.000000 0.000000 0
0.000000 0.000000 0
-0.000000 0.000000 0
0.000000 0.000000 0
0.000000 0.000001 0
0.000061 -0.000059 0
0.000082 -0.000023 0
-0.000014 0.000055 0
-0.000256 0.000143 0
-0.000645 0.000227 0
-0.001171 0.000301 0
-0.001815 0.000363 0
-0.002556 0.000412 0
-0.003375 0.000449 0
-0.004253 0.000476 0
-0.005170 0.000493 0
-0.006111 0.000502 0
-0.007061 0.000504 0
-0.008007 0.000498 0
-0.008934 0.000486 0
-0.009831 0.000467 0
-0.010684 0.000442 0
-0.011482 0.000410 0
-0.012211 0.000372 0
-0.012860 0.000326 0
-0.013416 0.000274 0
-0.013867 0.000216 0
-0.014202 0.000152 0
-0.014412 0.000082 0
-0.014488 0.000009 0
-0.014424 -0.000068 0
-0.014217 -0.000147 0
-0.013865 -0.000225 0
-0.013371 -0.000301 0
-0.012740 -0.000373 0
-0.011984 -0.000439 0
-0.011115 -0.000497 0
-0.010150 -0.000544 0
-0.009109 -0.000579 0
-0.008017 -0.000600 0
-0.006897 -0.000607 0
-0.005778 -0.000598 0
-0.004687 -0.000574 0
-0.003651 -0.000535 0
-0.002697 -0.000482 0
-0.001847 -0.000416 0
-0.001122 -0.000339 0
-0.000538 -0.000255 0
-0.000105 -0.000167 0
0.000174 -0.000079 0
0.000305 0.000002 0
0.000306 0.000066 0
0.000213 0.000100 0
0.000082 0.000082 0
0.000000 0.000000 0
0.000000 0.000000 0
0.000024 -0.000081 0
-0.000075 0.000074 0
-0.000386 0.000337 0
-0.000944 0.000631 0
-0.001753 0.000915 0
-0.002796 0.001170 0
-0.004045 0.001386 0
-0.005466 0.001561 0
-0.007026 0.001696 0
-0.008690 0.001794 0
-0.010426 0.001858 0
-0.012205 0.001891 0
-0.013999 0.001895 0
-0.015781 0.001873 0
-0.017526 0.001824 0
-0.019211 0.001750 0
-0.020811 0.001651 0
-0.022302 0.001527 0
-0.023661 0.001378 0
-0.024866 0.001205 0
-0.025893 0.001007 0
-0.026721 0.000787 0
-0.027331 0.000545 0
-0.027706 0.000286 0
-0.027832 0.000012 0
-0.027698 -0.000271 0
-0.027298 -0.000560 0
-0.026632 -0.000846 0
-0.025707 -0.001124 0
-0.024532 -0.001387 0
-0.023127 -0.001626 0
-0.021516 -0.001834 0
-0.019730 -0.002005 0
-0.017807 -0.002133 0
-0.015787 -0.002212 0
-0.013716 -0.002238 0
-0.011642 -0.002210 0
-0.009614 -0.002127 0
-0.007680 -0.001991 0
-0.005887 -0.001805 0
-0.004276 -0.001575 0
-0.002882 -0.001309 0
-0.001734 -0.001017 0
-0.000848 -0.000712 0
-0.000230 -0.000410 0
0.000133 -0.000133 0
0.000269 0.000092 0
0.000231 0.000224 0
0.000103 0.000213 0
0.000000 0.000000 0
0.000000 -0.000000 0
-0.000057 0.000015 0
-0.000350 0.000386 0
-0.000948 0.000924 0
-0.001879 0.001511 0
-0.003138 0.002080 0
-0.004703 0.002594 0
-0.006539 0.003033 0
-0.008602 0.003392 0
-0.010849 0.003672 0
-0.013235 0.003876 0
-0.015717 0.004008 0
-0.018254 0.004075 0
-0.020807 0.004080 0
-0.023340 0.004026 0
-0.025817 0.003916 0
-0.028203 0.003752 0
-0.030463 0.003533 0
-0.032566 0.003261 0
-0.034478 0.002935 0
-0.036166 0.002558 0
-0.037601 0.002130 0
-0.038753 0.001655 0
-0.039596 0.001137 0
-0.040107 0.000583 0
-0.040268 -0.000000 0
-0.040066 -0.000602 0
-0.039494 -0.001212 0
-0.038552 -0.001816 0
-0.037249 -0.002402 0
-0.035602 -0.002953 0
-0.033635 -0.003455 0
-0.031384 -0.003893 0
-0.028890 -0.004253 0
-0.026203 -0.004523 0
-0.023379 -0.004692 0
-0.020480 -0.004752 0
-0.017569 -0.004701 0
-0.014714 -0.004536 0
-0.011978 -0.004262 0
-0.009425 -0.003886 0
-0.007109 -0.003420 0
-0.005080 -0.002881 0
-0.003374 -0.002289 0
-0.002014 -0.001671 0
-0.001008 -0.001060 0
-0.000344 -0.000497 0
0.000013 -0.000032 0
0.000123 0.000266 0
0.000076 0.000313 0
0.000000 -0.000000 0
0.000000 -0.000000 0
-0.000154 0.000268 0
-0.000677 0.000965 0
-0.001604 0.001866 0
-0.002941 0.002821 0
-0.004674 0.003741 0
-0.006769 0.004571 0
-0.009182 0.005285 0
-0.011864 0.005871 0
-0.014762 0.006328 0
-0.017823 0.006662 0
-0.020996 0.006877 0
-0.024230 0.006982 0
-0.027479 0.006982 0
-0.030694 0.006882 0
-0.033834 0.006686 0
-0.036852 0.006397 0
-0.039708 0.006015 0
-0.042360 0.005541 0
-0.044765 0.004978 0
-0.046886 0.004328 0
-0.048684 0.003594 0
-0.050123 0.002782 0
-0.051173 0.001900 0
-0.051806 0.000958 0
-0.052000 -0.000029 0
-0.051740 -0.001046 0
-0.051018 -0.002074 0
-0.049837 -0.003091 0
-0.048207 -0.004075 0
-0.046148 -0.005000 0
-0.043692 -0.005843 0
-0.040881 -0.006580 0
-0.037765 -0.007187 0
-0.034405 -0.007644 0
-0.030868 -0.007935 0
-0.027228 -0.008048 0
-0.023565 -0.007976 0
-0.019956 -0.007718 0
-0.016482 -0.007279 0
-0.013217 -0.006673 0
-0.010230 -0.005919 0
-0.007579 -0.005044 0
-0.005311 -0.004083 0
-0.003455 -0.003078 0
-0.002025 -0.002080 0
-0.001008 -0.001154 0
-0.000373 -0.000375 0
-0.000058 0.000161 0
0.000026 0.000336 0
0.000000 0.000000 0
0.000000 -0.000000 0
-0.000255 0.000692 0
-0.001021 0.001836 0
-0.002295 0.003189 0
-0.004059 0.004582 0
-0.006278 0.005908 0
-0.008907 0.007102 0
-0.011892 0.008128 0
-0.015176 0.008972 0
-0.018699 0.009631 0
-0.022401 0.010110 0
-0.026223 0.010416 0
-0.030108 0.010558 0
-0.034001 0.010544 0
-0.037848 0.010381 0
-0.041597 0.010074 0
-0.045197 0.009626 0
-0.048598 0.009040 0
-0.051752 0.008318 0
-0.054610 0.007461 0
-0.057127 0.006476 0
-0.059259 0.005367 0
-0.060966 0.004144 0
-0.062211 0.002820 0
-0.062963 0.001410 0
-0.063197 -0.000066 0
-0.062898 -0.001584 0
-0.062055 -0.003115 0
-0.060672 -0.004628 0
-0.058761 -0.006091 0
-0.056345 -0.007467 0
-0.053460 -0.008722 0
-0.050153 -0.009821 0
-0.046482 -0.010729 0
-0.042516 -0.011420 0
-0.038332 -0.011868 0
-0.034014 -0.012055 0
-0.029652 -0.011973 0
-0.025337 -0.011619 0
-0.021161 -0.011001 0
-0.017210 -0.010138 0
-0.013564 -0.009058 0
-0.010292 -0.007800 0
-0.007451 -0.006413 0
-0.005078 -0.004958 0
-0.003191 -0.003507 0
-0.001786 -0.002148 0
-0.000833 -0.000982 0
-0.000277 -0.000132 0
-0.000036 0.000255 0
0.000000 0.000000 0
0.000000 -0.000000 0
-0.000353 0.001289 0
-0.001365 0.003007 0
-0.002993 0.004905 0
-0.005189 0.006804 0
-0.007898 0.008588 0
-0.011060 0.010185 0
-0.014610 0.011554 0
-0.018482 0.012678 0
-0.022610 0.013554 0
-0.026925 0.014186 0
-0.031364 0.014585 0
-0.035864 0.014760 0
-0.040362 0.014722 0
-0.044800 0.014478 0
-0.049119 0.014035 0
-0.053262 0.013398 0
-0.057172 0.012569 0
-0.060796 0.011553 0
-0.064080 0.010354 0
-0.066972 0.008977 0
-0.069424 0.007433 0
-0.071391 0.005734 0
-0.072832 0.003897 0
-0.073712 0.001945 0
-0.074004 -0.000094 0
-0.073690 -0.002188 0
-0.072760 -0.004299 0
-0.071214 -0.006386 0
-0.069067 -0.008402 0
-0.066344 -0.010301 0
-0.063082 -0.012035 0
-0.059333 -0.013557 0
-0.055161 -0.014823 0
-0.050640 -0.015794 0
-0.045855 -0.016437 0
-0.040899 -0.016728 0
-0.035872 -0.016653 0
-0.030876 -0.016209 0
-0.026014 -0.015407 0
-0.021383 -0.014271 0
-0.017077 -0.012837 0
-0.013174 -0.011157 0
-0.009741 -0.009297 0
-0.006825 -0.007338 0
-0.004454 -0.005372 0
-0.002631 -0.003512 0
-0.001333 -0.001884 0
-0.000514 -0.000636 0
-0.000101 0.000059 0
0.000000 0.000000 0
0.000000 -0.000000 0
-0.000448 0.002057 0
-0.001701 0.004477 0
-0.003679 0.007013 0
-0.006304 0.009486 0
-0.009499 0.011778 0
-0.013188 0.013814 0
-0.017293 0.015551 0
-0.021740 0.016972 0
-0.026453 0.018074 0
-0.031360 0.018865 0
-0.036390 0.019354 0
-0.041475 0.019556 0
-0.046549 0.019480 0
-0.051548 0.019138 0
-0.056407 0.018536 0
-0.061065 0.017680 0
-0.065461 0.016575 0
-0.069535 0.015225 0
-0.073229 0.013638 0
-0.076487 0.011820 0
-0.079256 0.009786 0
-0.081487 0.007552 0
-0.083135 0.005141 0
-0.084163 0.002582 0
-0.084539 -0.000088 0
-0.084243 -0.002828 0
-0.083262 -0.005590 0
-0.081597 -0.008321 0
-0.079260 -0.010961 0
-0.076277 -0.013452 0
-0.072686 -0.015733 0
-0.068542 -0.017742 0
-0.063911 -0.019423 0
-0.058873 -0.020726 0
-0.053520 -0.021608 0
-0.047951 -0.022038 0
-0.042277 -0.021996 0
-0.036609 -0.021477 0
-0.031061 -0.020494 0
-0.025744 -0.019075 0
-0.020761 -0.017268 0
-0.016206 -0.015136 0
-0.012156 -0.012761 0
-0.008671 -0.010244 0
-0.005787 -0.007702 0
-0.003520 -0.005269 0
-0.001856 -0.003099 0
-0.000758 -0.001364 0
-0.000166 -0.000258 0
0.000000 0.000000 0
0.000000 0.000000 0
-0.000538 0.002990 0
-0.002024 0.006239 0
-0.004343 0.009507 0
-0.007388 0.012623 0
-0.011060 0.015472 0
-0.015264 0.017979 0
-0.019912 0.020106 0
-0.024917 0.021838 0
-0.030198 0.023174 0
-0.035675 0.024123 0
-0.041274 0.024700 0
-0.046922 0.024919 0
-0.052548 0.024794 0
-0.058083 0.024335 0
-0.063461 0.023552 0
-0.068615 0.022452 0
-0.073481 0.021039 0
-0.077995 0.019322 0
-0.082094 0.017306 0
-0.085719 0.015005 0
-0.088813 0.012433 0
-0.091323 0.009613 0
-0.093200 0.006573 0
-0.094402 0.003349 0
-0.094896 -0.000014 0
-0.094657 -0.003466 0
-0.093669 -0.006945 0
-0.091931 -0.010388 0
-0.089452 -0.013722 0
-0.086256 -0.016875 0
-0.082383 -0.019770 0
-0.077886 -0.022332 0
-0.072834 -0.024492 0
-0.067310 -0.026186 0
-0.061411 -0.027359 0
-0.055245 -0.027971 0
-0.048928 -0.027995 0
-0.042585 -0.027425 0
-0.036340 -0.026272 0
-0.030316 -0.024570 0
-0.024632 -0.022374 0
-0.019395 -0.019762 0
-0.014696 -0.016833 0
-0.010608 -0.013706 0
-0.007183 -0.010523 0
-0.004445 -0.007443 0
-0.002395 -0.004645 0
-0.001007 -0.002325 0
-0.000232 -0.000699 0
0.000000 0.000000 0
0.000000 0.000000 0
-0.000624 0.004082 0
-0.002334 0.008282 0
-0.004980 0.012376 0
-0.008431 0.016203 0
-0.012565 0.019654 0
-0.017270 0.022666 0
-0.022443 0.025204 0
-0.027989 0.027258 0
-0.033819 0.028832 0
-0.039847 0.029941 0
-0.045994 0.030601 0
-0.052183 0.030829 0
-0.058340 0.030641 0
-0.064395 0.030051 0
-0.070275 0.029068 0
-0.075913 0.027700 0
-0.081241 0.025954 0
-0.086191 0.023838 0
-0.090699 0.021362 0
-0.094700 0.018539 0
-0.098134 0.015389 0
-0.100944 0.011938 0
-0.103079 0.008220 0
-0.104491 0.004279 0
-0.105144 0.000166 0
-0.105007 -0.004055 0
-0.104061 -0.008316 0
-0.102301 -0.012538 0
-0.099731 -0.016636 0
-0.096373 -0.020521 0
-0.092264 -0.024103 0
-0.087456 -0.027291 0
-0.082018 -0.029999 0
-0.076035 -0.032149 0
-0.069609 -0.033674 0
-0.062853 -0.034521 0
-0.055893 -0.034655 0
-0.048862 -0.034066 0
-0.041899 -0.032763 0
-0.035141 -0.030783 0
-0.028722 -0.028189 0
-0.022764 -0.025072 0
-0.017377 -0.021548 0
-0.012649 -0.017757 0
-0.008646 -0.013865 0
-0.005410 -0.010057 0
-0.002952 -0.006537 0
-0.001261 -0.003528 0
-0.000297 -0.001265 0
0.000000 -0.000000 0
0.000000 0.000000 0
-0.000706 0.005324 0
-0.002627 0.010594 0
-0.005587 0.015604 0
-0.009426 0.020208 0
-0.014003 0.024310 0
-0.019189 0.027857 0
-0.024868 0.030826 0
-0.030935 0.033213 0
-0.037292 0.035031 0
-0.043850 0.036298 0
-0.050525 0.037036 0
-0.057236 0.037266 0
-0.063908 0.037006 0
-0.070466 0.036270 0
-0.076837 0.035071 0
-0.082951 0.033417 0
-0.088737 0.031317 0
-0.094126 0.028779 0
-0.099050 0.025815 0
-0.103442 0.022440 0
-0.107238 0.018677 0
-0.110378 0.014557 0
-0.112805 0.010120 0
-0.114469 0.005414 0
-0.115327 0.000501 0
-0.115344 -0.004548 0
-0.114495 -0.009651 0
-0.112768 -0.014718 0
-0.110163 -0.019650 0
-0.106697 -0.024342 0
-0.102402 -0.028687 0
-0.097327 -0.032578 0
-0.091539 -0.035913 0
-0.085125 -0.038595 0
-0.078189 -0.040541 0
-0.070848 -0.041687 0
-0.063239 -0.041986 0
-0.055504 -0.041419 0
-0.047796 -0.039993 0
-0.040269 -0.037747 0
-0.033072 -0.034751 0
-0.026349 -0.031107 0
-0.020227 -0.026948 0
-0.014813 -0.022437 0
-0.010194 -0.017762 0
-0.006425 -0.013137 0
-0.003535 -0.008794 0
-0.001524 -0.004981 0
-0.000363 -0.001960 0
0.000000 -0.000000 0
0.000000 0.000000 0
-0.000782 0.006709 0
-0.002903 0.013162 0
-0.006159 0.019175 0
-0.010367 0.024619 0
-0.015365 0.029417 0
-0.021009 0.033531 0
-0.027170 0.036950 0
-0.033734 0.039682 0
-0.040597 0.041748 0
-0.047663 0.043174 0
-0.054844 0.043987 0
-0.062059 0.044212 0
-0.069227 0.043871 0
-0.076275 0.042980 0
-0.083127 0.041553 0
-0.089711 0.039600 0
-0.095955 0.037129 0
-0.101788 0.034151 0
-0.107140 0.030678 0
-0.111941 0.026727 0
-0.116125 0.022325 0
-0.119627 0.017505 0
-0.122387 0.012312 0
-0.124349 0.006801 0
-0.125464 0.001041 0
-0.125692 -0.004887 0
-0.124999 -0.010892 0
-0.123367 -0.016869 0
-0.120789 -0.022706 0
-0.117274 -0.028283 0
-0.112848 -0.033474 0
-0.107554 -0.038154 0
-0.101458 -0.042200 0
-0.094643 -0.045500 0
-0.087214 -0.047951 0
-0.079297 -0.049470 0
-0.071031 -0.050000 0
-0.062574 -0.049508 0
-0.054092 -0.047998 0
-0.045755 -0.045506 0
-0.037734 -0.042109 0
-0.030193 -0.037918 0
-0.023283 -0.033083 0
-0.017132 -0.027791 0
-0.011848 -0.022254 0
-0.007507 -0.016715 0
-0.004154 -0.011438 0
-0.001802 -0.006700 0
-0.000433 -0.002790 0
0.000000 -0.000000 0
0.000000 -0.000000 0
-0.000854 0.008227 0
-0.003162 0.015971 0
-0.006694 0.023067 0
-0.011248 0.029413 0
-0.016642 0.034952 0
-0.022718 0.039663 0
-0.029335 0.043552 0
-0.036370 0.046640 0
-0.043712 0.048959 0
-0.051262 0.050545 0
-0.058927 0.051432 0
-0.066623 0.051649 0
-0.074271 0.051222 0
-0.081794 0.050170 0
-0.089116 0.048507 0
-0.096165 0.046246 0
-0.102867 0.043394 0
-0.109151 0.039964 0
-0.114944 0.035968 0
-0.120175 0.031425 0
-0.124774 0.026364 0
-0.128674 0.020819 0
-0.131810 0.014842 0
-0.134119 0.008491 0
-0.135547 0.001843 0
-0.136045 -0.005013 0
-0.135574 -0.011976 0
-0.134104 -0.018928 0
-0.131620 -0.025743 0
-0.128121 -0.032283 0
-0.123626 -0.038407 0
-0.118169 -0.043969 0
-0.111811 -0.048824 0
-0.104632 -0.052838 0
-0.096737 -0.055887 0
-0.088253 -0.057870 0
-0.079329 -0.058709 0
-0.070133 -0.058359 0
-0.060845 -0.056813 0
-0.051657 -0.054105 0
-0.042761 -0.050313 0
-0.034346 -0.045559 0
-0.026587 -0.040009 0
-0.019640 -0.033872 0
-0.013636 -0.027388 0
-0.008674 -0.020832 0
-0.004819 -0.014499 0
-0.002099 -0.008702 0
-0.000507 -0.003762 0
0.000000 -0.000000 0
0.000000 -0.000000 0
-0.000920 0.009870 0
-0.003400 0.019003 0
-0.007189 0.027261 0
-0.012064 0.034567 0
-0.017826 0.040888 0
-0.024305 0.046225 0
-0.031348 0.050603 0
-0.038824 0.054059 0
-0.046617 0.056639 0
-0.054622 0.058388 0
-0.062745 0.059348 0
-0.070901 0.059556 0
-0.079008 0.059041 0
-0.086990 0.057825 0
-0.094771 0.055924 0
-0.102277 0.053351 0
-0.109437 0.050115 0
-0.116176 0.046228 0
-0.122422 0.041702 0
-0.128103 0.036558 0
-0.133145 0.030825 0
-0.137478 0.024540 0
-0.141031 0.017756 0
-0.143738 0.010538 0
-0.145537 0.002967 0
-0.146369 -0.004861 0
-0.146187 -0.012833 0
-0.144951 -0.020823 0
-0.142634 -0.028689 0
-0.139225 -0.036277 0
-0.134730 -0.043426 0
-0.129176 -0.049968 0
-0.122613 -0.055738 0
-0.115116 -0.060574 0
-0.106788 -0.064330 0
-0.097757 -0.066878 0
-0.088179 -0.068120 0
-0.078231 -0.067993 0
-0.068111 -0.066474 0
-0.058031 -0.063590 0
-0.048207 -0.059420 0
-0.038856 -0.054092 0
-0.030183 -0.047789 0
-0.022373 -0.040741 0
-0.015587 -0.033219 0
-0.009949 -0.025532 0
-0.005546 -0.018013 0
-0.002424 -0.011012 0
-0.000588 -0.004889 0
0.000000 -0.000000 0
0.000000 -0.000000 0
-0.000980 0.011627 0
-0.003617 0.022240 0
-0.007641 0.031731 0
-0.012808 0.040051 0
-0.018909 0.047193 0
-0.025757 0.053185 0
-0.033193 0.058071 0
-0.041078 0.061909 0
-0.049288 0.064757 0
-0.057718 0.066674 0
-0.066271 0.067711 0
-0.074859 0.067912 0
-0.083402 0.067310 0
-0.091823 0.065932 0
-0.100047 0.063794 0
-0.108001 0.060912 0
-0.115613 0.057293 0
-0.122810 0.052950 0
-0.129519 0.047895 0
-0.135666 0.042148 0
-0.141175 0.035739 0
-0.145973 0.028705 0
-0.149986 0.021102 0
-0.153140 0.012997 0
-0.155365 0.004474 0
-0.156597 -0.004363 0
-0.156774 -0.013394 0
-0.155848 -0.022481 0
-0.153777 -0.031468 0
-0.150537 -0.040188 0
-0.146122 -0.048457 0
-0.140545 -0.056086 0
-0.133845 -0.062884 0
-0.126089 -0.068663 0
-0.117375 -0.073246 0
-0.107829 -0.076479 0
-0.097611 -0.078235 0
-0.086909 -0.078426 0
-0.075936 -0.077013 0
-0.064926 -0.074009 0
-0.054123 -0.069487 0
-0.043773 -0.063583 0
-0.034116 -0.056492 0
-0.025371 -0.048467 0
-0.017731 -0.039812 0
-0.011353 -0.030872 0
-0.006348 -0.022024 0
-0.002783 -0.013661 0
-0.000677 -0.006186 0
0.000000 -0.000000 0
0.000000 -0.000000 0
-0.001033 0.013487 0
-0.003812 0.025663 0
-0.008045 0.036452 0
-0.013476 0.045835 0
-0.019881 0.053837 0
-0.027063 0.060509 0
-0.034855 0.065923 0
-0.043111 0.070154 0
-0.051703 0.073280 0
-0.060523 0.075371 0
-0.069472 0.076490 0
-0.078462 0.076688 0
-0.087413 0.076005 0
-0.096249 0.074470 0
-0.104896 0.072103 0
-0.113282 0.068917 0
-0.121337 0.064924 0
-0.128988 0.060133 0
-0.136162 0.054557 0
-0.142785 0.048214 0
-0.148781 0.041132 0
-0.154072 0.033351 0
-0.158580 0.024923 0
-0.162226 0.015918 0
-0.164934 0.006424 0
-0.166627 -0.003452 0
-0.167236 -0.013582 0
-0.166696 -0.023821 0
-0.164955 -0.033999 0
-0.161972 -0.043932 0
-0.157724 -0.053418 0
-0.152211 -0.062245 0
-0.145456 -0.070193 0
-0.137515 -0.077044 0
-0.128475 -0.082590 0
-0.118461 -0.086642 0
-0.107633 -0.089040 0
-0.096187 -0.089667 0
-0.084352 -0.088456 0
-0.072383 -0.085404 0
-0.060552 -0.080573 0
-0.049142 -0.074099 0
-0.038428 -0.066191 0
-0.028670 -0.057125 0
-0.020100 -0.047238 0
-0.012908 -0.036916 0
-0.007239 -0.026582 0
-0.003184 -0.016683 0
-0.000778 -0.007673 0
0.000000 -0.000000 0
0.000000 -0.000000 0
-0.001080 0.015439 0
-0.003981 0.029251 0
-0.008398 0.041396 0
-0.014060 0.051887 0
-0.020733 0.060781 0
-0.028211 0.068160 0
-0.036318 0.074119 0
-0.044904 0.078757 0
-0.053838 0.082169 0
-0.063008 0.084443 0
-0.072315 0.085651 0
-0.081672 0.085853 0
-0.090997 0.085097 0
-0.100217 0.083414 0
-0.109260 0.080828 0
-0.118057 0.077353 0
-0.126537 0.072999 0
-0.134631 0.067775 0
-0.142266 0.061692 0
-0.149368 0.054767 0
-0.155861 0.047025 0
-0.161664 0.038504 0
-0.166697 0.029256 0
-0.170874 0.019350 0
-0.174112 0.008875 0
-0.176327 -0.002061 0
-0.177435 -0.013325 0
-0.177361 -0.024761 0
-0.176036 -0.036193 0
-0.173402 -0.047419 0
-0.169419 -0.058218 0
-0.164066 -0.068354 0
-0.157353 -0.077580 0
-0.149316 -0.085643 0
-0.140032 -0.092300 0
-0.129615 -0.097321 0
-0.118226 -0.100509 0
-0.106064 -0.101707 0
-0.093372 -0.100818 0
-0.080426 -0.097809 0
-0.067530 -0.092728 0
-0.055001 -0.085707 0
-0.043159 -0.076963 0
-0.032307 -0.066795 0
-0.022722 -0.055574 0
-0.014638 -0.043733 0
-0.008234 -0.031748 0
-0.003633 -0.020122 0
-0.000891 -0.009370 0
0.000000 -0.000000 0
0.000000 0.000000 0
-0.001119 0.017468 0
-0.004124 0.032981 0
-0.008696 0.046532 0
-0.014556 0.058170 0
-0.021457 0.067987 0
-0.029188 0.076095 0
-0.037568 0.082616 0
-0.046439 0.087674 0
-0.055670 0.091384 0
-0.065146 0.093848 0
-0.074768 0.095153 0
-0.084448 0.095370 0
-0.094108 0.094550 0
-0.103675 0.092733 0
-0.113080 0.089942 0
-0.122255 0.086194 0
-0.131135 0.081498 0
-0.139650 0.075862 0
-0.147731 0.069294 0
-0.155305 0.061809 0
-0.162294 0.053428 0
-0.168619 0.044187 0
-0.174194 0.034133 0
-0.178932 0.023334 0
-0.182741 0.011877 0
-0.185529 -0.000129 0
-0.187201 -0.012548 0
-0.187669 -0.025220 0
-0.186846 -0.037959 0
-0.184657 -0.050550 0
-0.181042 -0.062754 0
-0.175961 -0.074311 0
-0.169399 -0.084943 0
-0.161375 -0.094365 0
-0.151946 -0.102291 0
-0.141216 -0.108448 0
-0.129336 -0.112592 0
-0.116509 -0.114521 0
-0.102985 -0.114094 0
-0.089063 -0.111246 0
-0.075075 -0.105998 0
-0.061379 -0.098470 0
-0.048339 -0.088885 0
-0.036312 -0.077562 0
-0.025625 -0.064907 0
-0.016562 -0.051403 0
-0.009347 -0.037587 0
-0.004138 -0.024027 0
-0.001019 -0.011306 0
0.000000 -0.000000 0
0.000000 0.000000 0
-0.001151 0.019562 0
-0.004238 0.036828 0
-0.008937 0.051827 0
-0.014957 0.064647 0
-0.022045 0.075413 0
-0.029985 0.084270 0
-0.038589 0.091369 0
-0.047698 0.096859 0
-0.057177 0.100876 0
-0.066909 0.103540 0
-0.076797 0.104953 0
-0.086752 0.105193 0
-0.096699 0.104323 0
-0.106567 0.102385 0