# vtk DataFile Version 2.0
generated by CFD-lab course output (written by Tobias Neckel) 
ASCII

DATASET STRUCTURED_GRID
DIMENSIONS  51 51 1 
POINTS 2601 float

0.000000 0.000000 0
0.020000 0.000000 0
0.040000 0.000000 0
0.060000 0.000000 0
0.080000 0.000000 0
0.100000 0.000000 0
0.120000 0.000000 0
0.140000 0.000000 0
0.160000 0.000000 0
0.180000 0.000000 0
0.200000 0.000000 0
0.220000 0.000000 0
0.240000 0.000000 0
0.260000 0.000000 0
0.280000 0.000000 0
0.300000 0.000000 0
0.320000 0.000000 0
0.340000 0.000000 0
0.360000 0.000000 0
0.380000 0.000000 0
0.400000 0.000000 0
0.420000 0.000000 0
0.440000 0.000000 0
0.460000 0.000000 0
0.480000 0.000000 0
0.500000 0.000000 0
0.520000 0.000000 0
0.540000 0.000000 0
0.560000 0.000000 0
0.580000 0.000000 0
0.600000 0.000000 0
0.620000 0.000000 0
0.640000 0.000000 0
0.660000 0.000000 0
0.680000 0.000000 0
0.700000 0.000000 0
0.720000 0.000000 0
0.740000 0.000000 0
0.760000 0.000000 0
0.780000 0.000000 0
0.800000 0.000000 0
0.820000 0.000000 0
0.840000 0.000000 0
0.860000 0.000000 0
0.880000 0.000000 0
0.900000 0.000000 0
0.920000 0.000000 0
0.940000 0.000000 0
0.960000 0.000000 0
0.980000 0.000000 0
1.000000 0.000000 0
0.000000 0.020000 0
0.020000 0.020000 0
0.040000 0.020000 0
0.060000 0.020000 0
0.080000 0.020000 0
0.100000 0.020000 0
0.120000 0.020000 0
0.140000 0.020000 0
0.160000 0.020000 0
0.180000 0.020000 0
0.200000 0.020000 0
0.220000 0.020000 0
0.240000 0.020000 0
0.260000 0.020000 0
0.280000 0.020000 0
0.300000 0.020000 0
0.320000 0.020000 0
0.340000 0.020000 0
0.360000 0.020000 0
0.380000 0.020000 0
0.400000 0.020000 0
0.420000 0.020000 0
0.440000 0.020000 0
0.460000 0.020000 0
0.480000 0.020000 0
0.500000 0.020000 0
0.520000 0.020000 0
0.540000 0.020000 0
0.560000 0.020000 0
0.580000 0.020000 0
0.600000 0.020000 0
0.620000 0.020000 0
0.640000 0.020000 0
0.660000 0.020000 0
0.680000 0.020000 0
0.700000 0.020000 0
0.720000 0.020000 0
0.740000 0.020000 0
0.760000 0.020000 0
0.780000 0.020000 0
0.800000 0.020000 0
0.820000 0.020000 0
0.840000 0.020000 0
0.860000 0.020000 0
0.880000 0.020000 0
0.900000 0.020000 0
0.920000 0.020000 0
0.940000 0.020000 0
0.960000 0.020000 0
0.980000 0.020000 0
1.000000 0.020000 0
0.000000 0.040000 0
0.020000 0.040000 0
0.040000 0.040000 0
0.060000 0.040000 0
0.080000 0.040000 0
0.100000 0.040000 0
0.120000 0.040000 0
0.140000 0.040000 0
0.160000 0.040000 0
0.180000 0.040000 0
0.200000 0.040000 0
0.220000 0.040000 0
0.240000 0.040000 0
0.260000 0.040000 0
0.280000 0.040000 0
0.300000 0.040000 0
0.320000 0.040000 0
0.340000 0.040000 0
0.360000 0.040000 0
0.380000 0.040000 0
0.400000 0.040000 0
0.420000 0.040000 0
0.440000 0.040000 0
0.460000 0.040000 0
0.480000 0.040000 0
0.500000 0.040000 0
0.520000 0.040000 0
0.540000 0.040000 0
0.560000 0.040000 0
0.580000 0.040000 0
0.600000 0.040000 0
0.620000 0.040000 0
0.640000 0.040000 0
0.660000 0.040000 0
0.680000 0.040000 0
0.700000 0.040000 0
0.720000 0.040000 0
0.740000 0.040000 0
0.760000 0.040000 0
0.780000 0.040000 0
0.800000 0.040000 0
0.820000 0.040000 0
0.840000 0.040000 0
0.860000 0.040000 0
0.880000 0.040000 0
0.900000 0.040000 0
0.920000 0.040000 0
0.940000 0.040000 0
0.960000 0.040000 0
0.980000 0.040000 0
1.000000 0.040000 0
0.000000 0.060000 0
0.020000 0.060000 0
0.040000 0.060000 0
0.060000 0.060000 0
0.080000 0.060000 0
0.100000 0.060000 0
0.120000 0.060000 0
0.140000 0.060000 0
0.160000 0.060000 0
0.180000 0.060000 0
0.200000 0.060000 0
0.220000 0.060000 0
0.240000 0.060000 0
0.260000 0.060000 0
0.280000 0.060000 0
0.300000 0.060000 0
0.320000 0.060000 0
0.340000 0.060000 0
0.360000 0.060000 0
0.380000 0.060000 0
0.400000 0.060000 0
0.420000 0.060000 0
0.440000 0.060000 0
0.460000 0.060000 0
0.480000 0.060000 0
0.500000 0.060000 0
0.520000 0.060000 0
0.540000 0.060000 0
0.560000 0.060000 0
0.580000 0.060000 0
0.600000 0.060000 0
0.620000 0.060000 0
0.640000 0.060000 0
0.660000 0.060000 0
0.680000 0.060000 0
0.700000 0.060000 0
0.720000 0.060000 0
0.740000 0.060000 0
0.760000 0.060000 0
0.780000 0.060000 0
0.800000 0.060000 0
0.820000 0.060000 0
0.840000 0.060000 0
0.860000 0.060000 0
0.880000 0.060000 0
0.900000 0.060000 0
0.920000 0.060000 0
0.940000 0.060000 0
0.960000 0.060000 0
0.980000 0.060000 0
1.000000 0.060000 0
0.000000 0.080000 0
0.020000 0.080000 0
0.040000 0.080000 0
0.060000 0.080000 0
0.080000 0.080000 0
0.100000 0.080000 0
0.120000 0.080000 0
0.140000 0.080000 0
0.160000 0.080000 0
0.180000 0.080000 0
0.200000 0.080000 0
0.220000 0.080000 0
0.240000 0.080000 0
0.260000 0.080000 0
0.280000 0.080000 0
0.300000 0.080000 0
0.320000 0.080000 0
0.340000 0.080000 0
0.360000 0.080000 0
0.380000 0.080000 0
0.400000 0.080000 0
0.420000 0.080000 0
0.440000 0.080000 0
0.460000 0.080000 0
0.480000 0.080000 0
0.500000 0.080000 0
0.520000 0.080000 0
0.540000 0.080000 0
0.560000 0.080000 0
0.580000 0.080000 0
0.600000 0.080000 0
0.620000 0.080000 0
0.640000 0.080000 0
0.660000 0.080000 0
0.680000 0.080000 0
0.700000 0.080000 0
0.720000 0.080000 0
0.740000 0.080000 0
0.760000 0.080000 0
0.780000 0.080000 0
0.800000 0.080000 0
0.820000 0.080000 0
0.840000 0.080000 0
0.860000 0.080000 0
0.880000 0.080000 0
0.900000 0.080000 0
0.920000 0.080000 0
0.940000 0.080000 0
0.960000 0.080000 0
0.980000 0.080000 0
1.000000 0.080000 0
0.000000 0.100000 0
0.020000 0.100000 0
0.040000 0.100000 0
0.060000 0.100000 0
0.080000 0.100000 0
0.100000 0.100000 0
0.120000 0.100000 0
0.140000 0.100000 0
0.160000 0.100000 0
0.180000 0.100000 0
0.200000 0.100000 0
0.220000 0.100000 0
0.240000 0.100000 0
0.260000 0.100000 0
0.280000 0.100000 0
0.300000 0.100000 0
0.320000 0.100000 0
0.340000 0.100000 0
0.360000 0.100000 0
0.380000 0.100000 0
0.400000 0.100000 0
0.420000 0.100000 0
0.440000 0.100000 0
0.460000 0.100000 0
0.480000 0.100000 0
0.500000 0.100000 0
0.520000 0.100000 0
0.540000 0.100000 0
0.560000 0.100000 0
0.580000 0.100000 0
0.600000 0.100000 0
0.620000 0.100000 0
0.640000 0.100000 0
0.660000 0.100000 0
0.680000 0.100000 0
0.700000 0.100000 0
0.720000 0.100000 0
0.740000 0.100000 0
0.760000 0.100000 0
0.780000 0.100000 0
0.800000 0.100000 0
0.820000 0.100000 0
0.840000 0.100000 0
0.860000 0.100000 0
0.880000 0.100000 0
0.900000 0.100000 0
0.920000 0.100000 0
0.940000 0.100000 0
0.960000 0.100000 0
0.980000 0.100000 0
1.000000 0.100000 0
0.000000 0.120000 0
0.020000 0.120000 0
0.040000 0.120000 0
0.060000 0.120000 0
0.080000 0.120000 0
0.100000 0.120000 0
0.120000 0.120000 0
0.140000 0.120000 0
0.160000 0.120000 0
0.180000 0.120000 0
0.200000 0.120000 0
0.220000 0.120000 0
0.240000 0.120000 0
0.260000 0.120000 0
0.280000 0.120000 0
0.300000 0.120000 0
0.320000 0.120000 0
0.340000 0.120000 0
0.360000 0.120000 0
0.380000 0.120000 0
0.400000 0.120000 0
0.420000 0.120000 0
0.440000 0.120000 0
0.460000 0.120000 0
0.480000 0.120000 0
0.500000 0.120000 0
0.520000 0.120000 0
0.540000 0.120000 0
0.560000 0.120000 0
0.580000 0.120000 0
0.600000 0.120000 0
0.620000 0.120000 0
0.640000 0.120000 0
0.660000 0.120000 0
0.680000 0.120000 0
0.700000 0.120000 0
0.720000 0.120000 0
0.740000 0.120000 0
0.760000 0.120000 0
0.780000 0.120000 0
0.800000 0.120000 0
0.820000 0.120000 0
0.840000 0.120000 0
0.860000 0.120000 0
0.880000 0.120000 0
0.900000 0.120000 0
0.920000 0.120000 0
0.940000 0.120000 0
0.960000 0.120000 0
0.980000 0.120000 0
1.000000 0.120000 0
0.000000 0.140000 0
0.020000 0.140000 0
0.040000 0.140000 0
0.060000 0.140000 0
0.080000 0.140000 0
0.100000 0.140000 0
0.120000 0.140000 0
0.140000 0.140000 0
0.160000 0.140000 0
0.180000 0.140000 0
0.200000 0.140000 0
0.220000 0.140000 0
0.240000 0.140000 0
0.260000 0.140000 0
0.280000 0.140000 0
0.300000 0.140000 0
0.320000 0.140000 0
0.340000 0.140000 0
0.360000 0.140000 0
0.380000 0.140000 0
0.400000 0.140000 0
0.420000 0.140000 0
0.440000 0.140000 0
0.460000 0.140000 0
0.480000 0.140000 0
0.500000 0.140000 0
0.520000 0.140000 0
0.540000 0.140000 0
0.560000 0.140000 0
0.580000 0.140000 0
0.600000 0.140000 0
0.620000 0.140000 0
0.640000 0.140000 0
0.660000 0.140000 0
0.680000 0.140000 0
0.700000 0.140000 0
0.720000 0.140000 0
0.740000 0.140000 0
0.760000 0.140000 0
0.780000 0.140000 0
0.800000 0.140000 0
0.820000 0.140000 0
0.840000 0.140000 0
0.860000 0.140000 0
0.880000 0.140000 0
0.900000 0.140000 0
0.920000 0.140000 0
0.940000 0.140000 0
0.960000 0.140000 0
0.980000 0.140000 0
1.000000 0.140000 0
0.000000 0.160000 0
0.020000 0.160000 0
0.040000 0.160000 0
0.060000 0.160000 0
0.080000 0.160000 0
0.100000 0.160000 0
0.120000 0.160000 0
0.140000 0.160000 0
0.160000 0.160000 0
0.180000 0.160000 0
0.200000 0.160000 0
0.220000 0.160000 0
0.240000 0.160000 0
0.260000 0.160000 0
0.280000 0.160000 0
0.300000 0.160000 0
0.320000 0.160000 0
0.340000 0.160000 0
0.360000 0.160000 0
0.380000 0.160000 0
0.400000 0.160000 0
0.420000 0.160000 0
0.440000 0.160000 0
0.460000 0.160000 0
0.480000 0.160000 0
0.500000 0.160000 0
0.520000 0.160000 0
0.540000 0.160000 0
0.560000 0.160000 0
0.580000 0.160000 0
0.600000 0.160000 0
0.620000 0.160000 0
0.640000 0.160000 0
0.660000 0.160000 0
0.680000 0.160000 0
0.700000 0.160000 0
0.720000 0.160000 0
0.740000 0.160000 0
0.760000 0.160000 0
0.780000 0.160000 0
0.800000 0.160000 0
0.820000 0.160000 0
0.840000 0.160000 0
0.860000 0.160000 0
0.880000 0.160000 0
0.900000 0.160000 0
0.920000 0.160000 0
0.940000 0.160000 0
0.960000 0.160000 0
0.980000 0.160000 0
1.000000 0.160000 0
0.000000 0.180000 0
0.020000 0.180000 0
0.040000 0.180000 0
0.060000 0.180000 0
0.080000 0.180000 0
0.100000 0.180000 0
0.120000 0.180000 0
0.140000 0.180000 0
0.160000 0.180000 0
0.180000 0.180000 0
0.200000 0.180000 0
0.220000 0.180000 0
0.240000 0.180000 0
0.260000 0.180000 0
0.280000 0.180000 0
0.300000 0.180000 0
0.320000 0.180000 0
0.340000 0.180000 0
0.360000 0.180000 0
0.380000 0.180000 0
0.400000 0.180000 0
0.420000 0.180000 0
0.440000 0.180000 0
0.460000 0.180000 0
0.480000 0.180000 0
0.500000 0.180000 0
0.520000 0.180000 0
0.540000 0.180000 0
0.560000 0.180000 0
0.580000 0.180000 0
0.600000 0.180000 0
0.620000 0.180000 0
[...]
POINT_DATA 2601 

VECTORS velocity float
0.000000 0.000000 0
-0.000000 0.000000 0
-0.000000 0.000000 0
-0.000000 0.000000 0
-0.000000 0.000000 0
0.000000 0.000000 0
0.000000 0.000000 0
0.000000 0.000000 0
0.000000 0.000000 0
0.000000 0.000000 0
-0.000000 0.000000 0
-0.000000 0.000000 0
-0.000000 0.000000 0
-0.000000 0.000000 0
0.000000 0.000000 0
0.000000 0.000000 0
0.000000 0.000000 0
0.000000 0.000000 0
0.000000 0.000000 0
-0.000000 0.000000 0
-0.000000 0.000000 0
-0.000000 0.000000 0
-0.000000 0.000000 0
-0.000000 0.000000 0
-0.000000 0.000000 0
0.000000 0.000000 0
0.000000 0.000000 0
0.000000 0.000000 0
-0.000000 0.000000 0
-0.000000 0.000000 0
-0.000000 0.000000 0
-0.000000 0.000000 0
-0.000000 0.000000 0
-0.000000 0.000000 0
-0.000000 0.000000 0
-0.000000 0.000000 0
-0.000000 0.000000 0
-0.000000 0.000000 0
-0.000000 0.000000 0
-0.000000 0.000000 0
-0.000000 0.000000 0
0.000000 0.000000 0
0.000000 0.000000 0
0.000000 0.000000 0
0.000000 0.000000 0
0.000000 0.000000 0
0.000000 0.000000 0
0.000000 0.000000 0
0.000000 0.000000 0
-0.000000 0.000000 0
0.000000 0.000000 0
0.000000 -0.000000 0
0.000060 -0.000060 0
0.000081 -0.000023 0
-0.000014 0.000055 0
-0.000255 0.000144 0
-0.000645 0.000228 0
-0.001171 0.000302 0
-0.001815 0.000363 0
-0.002557 0.000412 0
-0.003376 0.000449 0
-0.004254 0.000476 0
-0.005171 0.000493 0
-0.006112 0.000502 0
-0.007062 0.000504 0
-0.008008 0.000499 0
-0.008935 0.000486 0
-0.009832 0.000468 0
-0.010686 0.000442 0
-0.011484 0.000410 0
-0.012213 0.000372 0
-0.012862 0.000326 0
-0.013418 0.000274 0
-0.013869 0.000216 0
-0.014205 0.000152 0
-0.014415 0.000082 0
-0.014491 0.000009 0
-0.014427 -0.000068 0
-0.014219 -0.000147 0
-0.013867 -0.000225 0
-0.013373 -0.000301 0
-0.012742 -0.000373 0
-0.011986 -0.000439 0
-0.011116 -0.000497 0
-0.010151 -0.000544 0
-0.009110 -0.000579 0
-0.008018 -0.000601 0
-0.006898 -0.000607 0
-0.005779 -0.000599 0
-0.004688 -0.000574 0
-0.003652 -0.000535 0
-0.002697 -0.000482 0
-0.001847 -0.000416 0
-0.001122 -0.000339 0
-0.000538 -0.000255 0
-0.000105 -0.000167 0
0.000174 -0.000079 0
0.000305 0.000002 0
0.000306 0.000066 0
0.000213 0.000100 0
0.000082 0.000082 0
0.000000 -0.000000 0
0.000000 -0.000000 0
0.000024 -0.000082 0
-0.000075 0.000074 0
-0.000386 0.000337 0
-0.000944 0.000631 0
-0.001753 0.000916 0
-0.002797 0.001170 0
-0.004046 0.001386 0
-0.005468 0.001561 0
-0.007027 0.001696 0
-0.008691 0.001794 0
-0.010428 0.001859 0
-0.012207 0.001892 0
-0.014001 0.001896 0
-0.015784 0.001873 0
-0.017530 0.001824 0
-0.019215 0.001750 0
-0.020815 0.001651 0
-0.022306 0.001527 0
-0.023666 0.001378 0
-0.024870 0.001205 0
-0.025897 0.001007 0
-0.026726 0.000787 0
-0.027336 0.000545 0
-0.027711 0.000286 0
-0.027837 0.000012 0
-0.027703 -0.000272 0
-0.027303 -0.000560 0
-0.026637 -0.000847 0
-0.025711 -0.001125 0
-0.024536 -0.001387 0
-0.023131 -0.001626 0
-0.021519 -0.001835 0
-0.019733 -0.002006 0
-0.017809 -0.002133 0
-0.015789 -0.002212 0
-0.013717 -0.002239 0
-0.011643 -0.002210 0
-0.009615 -0.002127 0
-0.007681 -0.001991 0
-0.005887 -0.001805 0
-0.004276 -0.001575 0
-0.002882 -0.001309 0
-0.001734 -0.001017 0
-0.000848 -0.000712 0
-0.000229 -0.000410 0
0.000133 -0.000133 0
0.000269 0.000092 0
0.000231 0.000224 0
0.000103 0.000213 0
0.000000 -0.000000 0
0.000000 -0.000000 0
-0.000057 0.000015 0
-0.000350 0.000387 0
-0.000948 0.000924 0
-0.001879 0.001512 0
-0.003139 0.002081 0
-0.004704 0.002594 0
-0.006540 0.003033 0
-0.008604 0.003393 0
-0.010851 0.003673 0
-0.013237 0.003876 0
-0.015720 0.004009 0
-0.018257 0.004076 0
-0.020811 0.004081 0
-0.023345 0.004027 0
-0.025822 0.003917 0
-0.028208 0.003752 0
-0.030469 0.003534 0
-0.032572 0.003261 0
-0.034484 0.002936 0
-0.036173 0.002558 0
-0.037608 0.002130 0
-0.038760 0.001655 0
-0.039604 0.001137 0
-0.040115 0.000583 0
-0.040276 -0.000000 0
-0.040073 -0.000602 0
-0.039501 -0.001212 0
-0.038559 -0.001817 0
-0.037255 -0.002402 0
-0.035608 -0.002954 0
-0.033641 -0.003456 0
-0.031389 -0.003894 0
-0.028894 -0.004254 0
-0.026207 -0.004524 0
-0.023382 -0.004693 0
-0.020482 -0.004753 0
-0.017571 -0.004701 0
-0.014715 -0.004537 0
-0.011980 -0.004263 0
-0.009426 -0.003887 0
-0.007110 -0.003421 0
-0.005080 -0.002881 0
-0.003374 -0.002289 0
-0.002014 -0.001672 0
-0.001008 -0.001060 0
-0.000343 -0.000496 0
0.000013 -0.000032 0
0.000123 0.000266 0
0.000076 0.000313 0
0.000000 0.000000 0
0.000000 -0.000000 0
-0.000153 0.000268 0
-0.000676 0.000966 0
-0.001603 0.001866 0
-0.002941 0.002822 0
-0.004675 0.003741 0
-0.006770 0.004571 0
-0.009184 0.005285 0
-0.011867 0.005872 0
-0.014765 0.006330 0
-0.017827 0.006663 0
-0.021000 0.006879 0
-0.024235 0.006984 0
-0.027484 0.006983 0
-0.030701 0.006884 0
-0.033840 0.006688 0
-0.036860 0.006398 0
-0.039716 0.006016 0
-0.042368 0.005542 0
-0.044774 0.004979 0
-0.046895 0.004329 0
-0.048693 0.003594 0
-0.050133 0.002782 0
-0.051183 0.001900 0
-0.051816 0.000958 0
-0.052010 -0.000029 0
-0.051749 -0.001047 0
-0.051028 -0.002075 0
-0.049846 -0.003092 0
-0.048215 -0.004076 0
-0.046156 -0.005002 0
-0.043699 -0.005845 0
-0.040887 -0.006581 0
-0.037771 -0.007188 0
-0.034410 -0.007646 0
-0.030872 -0.007937 0
-0.027232 -0.008050 0
-0.023568 -0.007977 0
-0.019959 -0.007719 0
-0.016484 -0.007281 0
-0.013218 -0.006674 0
-0.010230 -0.005920 0
-0.007579 -0.005045 0
-0.005311 -0.004083 0
-0.003455 -0.003078 0
-0.002024 -0.002080 0
-0.001008 -0.001154 0
-0.000373 -0.000375 0
-0.000058 0.000161 0
0.000026 0.000336 0
0.000000 0.000000 0
0.000000 0.000000 0
-0.000254 0.000692 0
-0.001020 0.001837 0
-0.002296 0.003189 0
-0.004060 0.004583 0
-0.006280 0.005909 0
-0.008909 0.007103 0
-0.011895 0.008130 0
-0.015179 0.008974 0
-0.018703 0.009633 0
-0.022406 0.010112 0
-0.026228 0.010418 0
-0.030114 0.010560 0
-0.034008 0.010546 0
-0.037856 0.010383 0
-0.041605 0.010076 0
-0.045206 0.009628 0
-0.048608 0.009042 0
-0.051762 0.008319 0
-0.054621 0.007463 0
-0.057138 0.006477 0
-0.059271 0.005368 0
-0.060978 0.004145 0
-0.062223 0.002820 0
-0.062975 0.001409 0
-0.063209 -0.000067 0
-0.062909 -0.001584 0
-0.062066 -0.003116 0
-0.060683 -0.004629 0
-0.058771 -0.006092 0
-0.056354 -0.007469 0
-0.053469 -0.008724 0
-0.050161 -0.009823 0
-0.046490 -0.010732 0
-0.042523 -0.011422 0
-0.038338 -0.011870 0
-0.034019 -0.012058 0
-0.029656 -0.011975 0
-0.025341 -0.011621 0
-0.021164 -0.011003 0
-0.017212 -0.010140 0
-0.013565 -0.009059 0
-0.010293 -0.007801 0
-0.007452 -0.006413 0
-0.005078 -0.004958 0
-0.003191 -0.003507 0
-0.001786 -0.002148 0
-0.000833 -0.000982 0
-0.000277 -0.000132 0
-0.000036 0.000256 0
0.000000 0.000000 0
0.000000 0.000000 0
-0.000352 0.001290 0
-0.001365 0.003008 0
-0.002994 0.004905 0
-0.005190 0.006804 0
-0.007900 0.008589 0
-0.011062 0.010186 0
-0.014613 0.011556 0
-0.018486 0.012681 0
-0.022614 0.013556 0
-0.026931 0.014189 0
-0.031371 0.014587 0
-0.035871 0.014763 0
-0.040371 0.014724 0
-0.044809 0.014481 0
-0.049129 0.014038 0
-0.053272 0.013400 0
-0.057184 0.012572 0
-0.060808 0.011555 0
-0.064093 0.010356 0
-0.066986 0.008979 0
-0.069438 0.007434 0
-0.071405 0.005734 0
-0.072846 0.003897 0
-0.073726 0.001945 0
-0.074018 -0.000095 0
-0.073704 -0.002189 0
-0.072773 -0.004301 0
-0.071227 -0.006387 0
-0.069079 -0.008404 0
-0.066355 -0.010304 0
-0.063093 -0.012038 0
-0.059343 -0.013560 0
-0.055170 -0.014827 0
-0.050648 -0.015797 0
-0.045862 -0.016440 0
-0.040905 -0.016731 0
-0.035877 -0.016656 0
-0.030880 -0.016212 0
-0.026017 -0.015410 0
-0.021386 -0.014273 0
-0.017079 -0.012839 0
-0.013175 -0.011159 0
-0.009742 -0.009299 0
-0.006826 -0.007338 0
-0.004455 -0.005373 0
-0.002631 -0.003512 0
-0.001333 -0.001884 0
-0.000514 -0.000636 0
-0.000101 0.000059 0
0.000000 0.000000 0
0.000000 0.000000 0
-0.000447 0.002058 0
-0.001701 0.004478 0
-0.003680 0.007014 0
-0.006305 0.009488 0
-0.009501 0.011780 0
-0.013191 0.013816 0
-0.017297 0.015554 0
-0.021744 0.016975 0
-0.026458 0.018078 0
-0.031366 0.018868 0
-0.036398 0.019358 0
-0.041484 0.019559 0
-0.046559 0.019484 0
-0.051558 0.019141 0
-0.056418 0.018539 0
-0.061077 0.017683 0
-0.065474 0.016578 0
-0.069549 0.015228 0
-0.073244 0.013640 0
-0.076502 0.011822 0
-0.079272 0.009787 0
-0.081503 0.007553 0
-0.083151 0.005141 0
-0.084179 0.002582 0
-0.084555 -0.000089 0
-0.084258 -0.002830 0
-0.083277 -0.005592 0
-0.081612 -0.008323 0
-0.079274 -0.010964 0
-0.076290 -0.013456 0
-0.072699 -0.015736 0
-0.068554 -0.017746 0
-0.063922 -0.019427 0
-0.058883 -0.020730 0
-0.053528 -0.021613 0
-0.047959 -0.022042 0
-0.042283 -0.022000 0
-0.036614 -0.021481 0
-0.031065 -0.020498 0
-0.025747 -0.019078 0
-0.020764 -0.017270 0
-0.016208 -0.015138 0
-0.012157 -0.012763 0
-0.008672 -0.010245 0
-0.005788 -0.007703 0
-0.003520 -0.005270 0
-0.001856 -0.003099 0
-0.000758 -0.001364 0
-0.000166 -0.000258 0
0.000000 0.000000 0
0.000000 0.000000 0
-0.000538 0.002991 0
-0.002025 0.006240 0
-0.004344 0.009509 0
-0.007390 0.012626 0
-0.011062 0.015475 0
-0.015267 0.017983 0
-0.019916 0.020110 0
-0.024923 0.021842 0
-0.030204 0.023178 0
-0.035683 0.024128 0
-0.041283 0.024705 0
-0.046932 0.024924 0
-0.052559 0.024799 0
-0.058095 0.024340 0
-0.063474 0.023557 0
-0.068629 0.022456 0
-0.073496 0.021043 0
-0.078011 0.019325 0
-0.082111 0.017309 0
-0.085736 0.015007 0
-0.088831 0.012435 0
-0.091340 0.009614 0
-0.093217 0.006573 0
-0.094420 0.003348 0
-0.094914 -0.000016 0
-0.094674 -0.003467 0
-0.093686 -0.006948 0
-0.091947 -0.010391 0
-0.089467 -0.013726 0
-0.086271 -0.016879 0
-0.082397 -0.019774 0
-0.077899 -0.022337 0
-0.072845 -0.024497 0
-0.067320 -0.026191 0
-0.061420 -0.027364 0
-0.055253 -0.027976 0
-0.048935 -0.028000 0
-0.042591 -0.027430 0
-0.036345 -0.026277 0
-0.030320 -0.024574 0
-0.024636 -0.022378 0
-0.019397 -0.019765 0
-0.014698 -0.016835 0
-0.010609 -0.013708 0
-0.007183 -0.010524 0
-0.004445 -0.007444 0
-0.002395 -0.004645 0
-0.001007 -0.002325 0
-0.000232 -0.000699 0
0.000000 0.000000 0
0.000000 0.000000 0
-0.000625 0.004082 0
-0.002335 0.008283 0
-0.004982 0.012378 0
-0.008433 0.016206 0
-0.012567 0.019659 0
-0.017273 0.022671 0
-0.022448 0.025209 0
-0.027995 0.027264 0
-0.033826 0.028838 0
-0.039856 0.029947 0
-0.046004 0.030607 0
-0.052194 0.030835 0
-0.058353 0.030647 0
-0.064408 0.030057 0
-0.070290 0.029073 0
-0.075929 0.027705 0
-0.081258 0.025959 0
-0.086209 0.023843 0
-0.090717 0.021366 0
-0.094718 0.018542 0
-0.098153 0.015391 0
-0.100963 0.011939 0
-0.103098 0.008221 0
-0.104511 0.004278 0
-0.105163 0.000165 0
-0.105025 -0.004058 0
-0.104080 -0.008319 0
-0.102318 -0.012542 0
-0.099748 -0.016640 0
-0.096389 -0.020526 0
-0.092279 -0.024108 0
-0.087470 -0.027297 0
-0.082031 -0.030005 0
-0.076047 -0.032156 0
-0.069620 -0.033680 0
-0.062862 -0.034527 0
-0.055901 -0.034662 0
-0.048869 -0.034072 0
-0.041905 -0.032768 0
-0.035146 -0.030787 0
-0.028726 -0.028193 0
-0.022767 -0.025076 0
-0.017379 -0.021551 0
-0.012650 -0.017760 0
-0.008647 -0.013867 0
-0.005410 -0.010058 0
-0.002953 -0.006538 0
-0.001261 -0.003528 0
-0.000297 -0.001265 0
0.000000 0.000000 0
0.000000 -0.000000 0
-0.000706 0.005325 0
-0.002628 0.010596 0
-0.005588 0.015607 0
-0.009428 0.020212 0
-0.014006 0.024315 0
-0.019193 0.027863 0
-0.024873 0.030832 0
-0.030942 0.033220 0
-0.037300 0.035038 0
-0.043860 0.036305 0
-0.050536 0.037043 0
-0.057248 0.037273 0
-0.063921 0.037013 0
-0.070480 0.036277 0
-0.076853 0.035078 0
-0.082968 0.033424 0
-0.088755 0.031323 0
-0.094145 0.028784 0
-0.099069 0.025819 0
-0.103462 0.022443 0
-0.107258 0.018680 0
-0.110398 0.014559 0
-0.112826 0.010120 0
-0.114490 0.005413 0
-0.115348 0.000499 0
-0.115364 -0.004550 0
-0.114515 -0.009655 0
-0.112787 -0.014722 0
-0.110182 -0.019655 0
-0.106715 -0.024348 0
-0.102419 -0.028694 0
-0.097342 -0.032586 0
-0.091554 -0.035920 0
-0.085139 -0.038602 0
-0.078200 -0.040549 0
-0.070859 -0.041695 0
-0.063248 -0.041994 0
-0.055512 -0.041426 0
-0.047803 -0.040000 0
-0.040274 -0.037753 0
-0.033077 -0.034757 0
-0.026353 -0.031112 0
-0.020229 -0.026952 0
-0.014815 -0.022440 0
-0.010195 -0.017764 0
-0.006426 -0.013138 0
-0.003536 -0.008794 0
-0.001524 -0.004981 0
-0.000363 -0.001960 0
0.000000 0.000000 0
0.000000 -0.000000 0
-0.000783 0.006710 0
-0.002904 0.013165 0
-0.006160 0.019179 0
-0.010369 0.024624 0
-0.015368 0.029424 0
-0.021013 0.033538 0
-0.027176 0.036958 0
-0.033742 0.039690 0
-0.040606 0.041756 0
-0.047673 0.043182 0
-0.054856 0.043995 0
-0.062072 0.044221 0
-0.069242 0.043879 0
-0.076290 0.042988 0
-0.083143 0.041561 0
-0.089729 0.039607 0
-0.095974 0.037136 0
-0.101808 0.034157 0
-0.107160 0.030682 0
-0.111962 0.026731 0
-0.116146 0.022328 0
-0.119649 0.017507 0
-0.122409 0.012312 0
-0.124371 0.006800 0
-0.125486 0.001039 0
-0.125713 -0.004890 0
-0.125020 -0.010896 0
-0.123388 -0.016874 0
-0.120809 -0.022712 0
-0.117293 -0.028290 0
-0.112866 -0.033481 0
-0.107571 -0.038162 0
-0.101473 -0.042209 0
-0.094657 -0.045509 0
-0.087227 -0.047960 0
-0.079308 -0.049479 0
-0.071042 -0.050009 0
-0.062583 -0.049517 0
-0.054099 -0.048006 0
-0.045761 -0.045513 0
-0.037739 -0.042115 0
-0.030198 -0.037923 0
-0.023286 -0.033088 0
-0.017135 -0.027794 0
-0.011850 -0.022257 0
-0.007508 -0.016717 0
-0.004154 -0.011439 0
-0.001802 -0.006700 0
-0.000433 -0.002790 0
0.000000 0.000000 0
0.000000 -0.000000 0
-0.000854 0.008229 0
-0.003162 0.015974 0
-0.006695 0.023073 0
-0.011250 0.029420 0
-0.016646 0.034960 0
-0.022723 0.039671 0
-0.029342 0.043561 0
-0.036379 0.046649 0
-0.043722 0.048969 0
-0.051273 0.050556 0
-0.058939 0.051442 0
-0.066637 0.051659 0
-0.074286 0.051231 0
-0.081810 0.050179 0
-0.089134 0.048516 0
-0.096184 0.046254 0
-0.102887 0.043402 0
-0.109171 0.039970 0
-0.114965 0.035973 0
-0.120197 0.031430 0
-0.124797 0.026367 0
-0.128697 0.020821 0
-0.131832 0.014842 0
-0.134142 0.008491 0
-0.135570 0.001841 0
-0.136068 -0.005017 0
-0.135596 -0.011980 0
-0.134125 -0.018933 0
-0.131641 -0.025749 0
-0.128141 -0.032291 0
-0.123645 -0.038416 0
-0.118187 -0.043978 0
-0.111828 -0.048834 0
-0.104648 -0.052848 0
-0.096751 -0.055898 0
-0.088266 -0.057880 0
-0.079340 -0.058719 0
-0.070142 -0.058369 0
-0.060853 -0.056822 0
-0.051664 -0.054113 0
-0.042767 -0.050320 0
-0.034350 -0.045565 0
-0.026590 -0.040015 0
-0.019643 -0.033876 0
-0.013638 -0.027391 0
-0.008676 -0.020834 0
-0.004820 -0.014500 0
-0.002100 -0.008703 0
-0.000507 -0.003762 0
0.000000 0.000000 0
0.000000 -0.000000 0
-0.000920 0.009872 0
-0.003401 0.019007 0
-0.007191 0.027267 0
-0.012066 0.034574 0
-0.017830 0.040896 0
-0.024310 0.046234 0
-0.031355 0.050613 0
-0.038833 0.054070 0
-0.046627 0.056651 0
-0.054633 0.058400 0
-0.062758 0.059360 0
-0.070916 0.059568 0
-0.079024 0.059052 0
-0.087007 0.057836 0
-0.094789 0.055934 0
-0.102297 0.053360 0
-0.109457 0.050124 0
-0.116197 0.046235 0
-0.122444 0.041708 0
-0.128126 0.036563 0
-0.133168 0.030828 0
-0.137501 0.024542 0
-0.141055 0.017757 0
-0.143762 0.010538 0
-0.145560 0.002965 0
-0.146393 -0.004864 0
-0.146210 -0.012838 0
-0.144973 -0.020830 0
-0.142656 -0.028696 0
-0.139246 -0.036286 0
-0.134750 -0.043435 0
-0.129195 -0.049978 0
-0.122630 -0.055749 0
-0.115132 -0.060586 0
-0.106803 -0.064342 0
-0.097771 -0.066890 0
-0.088191 -0.068132 0
-0.078242 -0.068004 0
-0.068120 -0.066484 0
-0.058038 -0.063600 0
-0.048213 -0.059428 0
-0.038861 -0.054100 0
-0.030187 -0.047796 0
-0.022376 -0.040746 0
-0.015589 -0.033223 0
-0.009950 -0.025535 0
-0.005547 -0.018015 0
-0.002425 -0.011013 0
-0.000588 -0.004889 0
0.000000 0.000000 0
0.000000 -0.000000 0
-0.000980 0.011630 0
-0.003618 0.022245 0
-0.007642 0.031738 0
-0.012811 0.040059 0
-0.018913 0.047203 0
-0.025763 0.053196 0
-0.033200 0.058083 0
-0.041086 0.061921 0
-0.049298 0.064770 0
-0.057730 0.066687 0
-0.066284 0.067724 0
-0.074874 0.067925 0
-0.083419 0.067323 0
-0.091841 0.065944 0
-0.100066 0.063806 0
-0.108021 0.060922 0
-0.115634 0.057302 0
-0.122832 0.052958 0
-0.129542 0.047902 0
-0.135689 0.042154 0
-0.141199 0.035743 0
-0.145997 0.028708 0
-0.150010 0.021103 0
-0.153164 0.012996 0
-0.155389 0.004472 0
-0.156620 -0.004367 0
-0.156798 -0.013399 0
-0.155871 -0.022488 0
-0.153799 -0.031477 0
-0.150559 -0.040197 0
-0.146142 -0.048467 0
-0.140564 -0.056098 0
-0.133863 -0.062896 0
-0.126107 -0.068675 0
-0.117391 -0.073259 0
-0.107843 -0.076492 0
-0.097624 -0.078248 0
-0.086920 -0.078439 0
-0.075946 -0.077025 0
-0.064934 -0.074020 0
-0.054130 -0.069498 0
-0.043779 -0.063592 0
-0.034120 -0.056500 0
-0.025374 -0.048473 0
-0.017734 -0.039817 0
-0.011354 -0.030876 0
-0.006349 -0.022026 0
-0.002784 -0.013662 0
-0.000677 -0.006187 0
0.000000 0.000000 0
0.000000 0.000000 0
-0.001033 0.013490 0
-0.003812 0.025669 0
-0.008046 0.036460 0
-0.013479 0.045845 0
-0.019885 0.053848 0
-0.027069 0.060522 0
-0.034862 0.065936 0
-0.043119 0.070168 0
-0.051713 0.073294 0
-0.060535 0.075386 0
-0.069485 0.076505 0
-0.078477 0.076702 0
-0.087430 0.076019 0
-0.096266 0.074483 0
-0.104914 0.072115 0
-0.113302 0.068929 0
-0.121358 0.064935 0
-0.129010 0.060142 0
-0.136185 0.054565 0
-0.142808 0.048220 0
-0.148805 0.041137 0
-0.154096 0.033353 0
-0.158604 0.024924 0
-0.162251 0.015917 0
-0.164958 0.006422 0
-0.166651 -0.003456 0
-0.167259 -0.013588 0
-0.166720 -0.023828 0
-0.164978 -0.034008 0
-0.161994 -0.043942 0
-0.157745 -0.053430 0
-0.152231 -0.062257 0
-0.145475 -0.070206 0
-0.137532 -0.077058 0
-0.128491 -0.082605 0
-0.118476 -0.086657 0
-0.107646 -0.089055 0
-0.096199 -0.089681 0
-0.084362 -0.088470 0
-0.072392 -0.085416 0
-0.060560 -0.080584 0
-0.049148 -0.074110 0
-0.038433 -0.066200 0
-0.028674 -0.057132 0
-0.020102 -0.047243 0
-0.012910 -0.036920 0
-0.007240 -0.026585 0
-0.003184 -0.016685 0
-0.000778 -0.007673 0
0.000000 -0.000000 0
0.000000 0.000000 0
-0.001080 0.015442 0
-0.003982 0.029258 0
-0.008400 0.041404 0
-0.014063 0.051898 0
-0.020737 0.060793 0
-0.028216 0.068174 0
-0.036325 0.074134 0
-0.044913 0.078773 0
-0.053848 0.082185 0
-0.063020 0.084459 0
-0.072329 0.085667 0
-0.081687 0.085869 0
-0.091013 0.085112 0
-0.100235 0.083428 0
-0.109279 0.080841 0
-0.118076 0.077365 0
-0.126558 0.073010 0
-0.134652 0.067785 0
-0.142288 0.061700 0
-0.149391 0.054774 0
-0.155884 0.047030 0
-0.161688 0.038507 0
-0.166720 0.029257 0
-0.170898 0.019350 0
-0.174136 0.008872 0
-0.176350 -0.002065 0
-0.177459 -0.013331 0
-0.177384 -0.024769 0
-0.176058 -0.036203 0
-0.173424 -0.047430 0
-0.169440 -0.058231 0
-0.164087 -0.068368 0
-0.157372 -0.077594 0
-0.149334 -0.085659 0
-0.140048 -0.092316 0
-0.129631 -0.097337 0
-0.118240 -0.100525 0
-0.106076 -0.101723 0
-0.093383 -0.100833 0
-0.080435 -0.097823 0
-0.067538 -0.092741 0
-0.055008 -0.085719 0
-0.043164 -0.076974 0
-0.032311 -0.066804 0
-0.022725 -0.055581 0
-0.014639 -0.043738 0
-0.008235 -0.031751 0
-0.003634 -0.020124 0
-0.000891 -0.009371 0
0.000000 -0.000000 0
0.000000 0.000000 0
-0.001119 0.017472 0
-0.004125 0.032988 0
-0.008698 0.046541 0
-0.014559 0.058182 0
-0.021461 0.068001 0
-0.029194 0.076110 0
-0.037575 0.082633 0
-0.046448 0.087691 0
-0.055680 0.091402 0
-0.065158 0.093866 0
-0.074781 0.095171 0
-0.084463 0.095387 0
-0.094124 0.094567 0
-0.103692 0.092748 0
-0.113098 0.089957 0
-0.122275 0.086208 0
-0.131155 0.081510 0
-0.139671 0.075873 0
-0.147753 0.069303 0
-0.155327 0.061816 0
-0.162317 0.053433 0
-0.168642 0.044190 0
-0.174217 0.034134 0
-0.178955 0.023333 0
-0.182765 0.011874 0
-0.185552 -0.000133 0
-0.187224 -0.012554 0
-0.187691 -0.025229 0
-0.186868 -0.037969 0
-0.184679 -0.050561 0
-0.181063 -0.062767 0
-0.175981 -0.074325 0
-0.169418 -0.084959 0
-0.161393 -0.094382 0
-0.151963 -0.102308 0
-0.141232 -0.108466 0
-0.129351 -0.112610 0
-0.116522 -0.114538 0
-0.102997 -0.114111 0
-0.089073 -0.111261 0
-0.075083 -0.106012 0
-0.061386 -0.098484 0
-0.048345 -0.088897 0
-0.036316 -0.077571 0
-0.025628 -0.064915 0
-0.016564 -0.051409 0
-0.009348 -0.037591 0
-0.004139 -0.024029 0
-0.001019 -0.011307 0
0.000000 -0.000000 0
0.000000 0.000000 0
-0.001151 0.019567 0
-0.004239 0.036836 0
-0.008939 0.051838 0
-0.014959 0.064661 0
-0.022049 0.075429 0
-0.029990 0.084287 0
-0.038596 0.091388 0
-0.047706 0.096878 0
-0.057186 0.100895 0
-0.066920 0.103560 0
-0.076809 0.104972 0
-0.086766 0.105212 0
-0.096714 0.104341 0
-0.106583 0.102402 0
-0.116307 0.099424 0