# vtk DataFile Version 2.0
generated by CFD-lab course output (written by Tobias Neckel) 
ASCII

DATASET STRUCTURED_GRID
DIMENSIONS  51 51 1 
POINTS 2601 float

0.000000 0.000000 0
0.020000 0.000000 0
0.040000 0.000000 0
0.060000 0.000000 0
0.080000 0.000000 0
0.100000 0.000000 0
0.120000 0.000000 0
0.140000 0.000000 0
0.160000 0.000000 0
0.180000 0.000000 0
0.200000 0.000000 0
0.220000 0.000000 0
0.240000 0.000000 0
0.260000 0.000000 0
0.280000 0.000000 0
0.300000 0.000000 0
0.320000 0.000000 0
0.340000 0.000000 0
0.360000 0.000000 0
0.380000 0.000000 0
0.400000 0.000000 0
0.420000 0.000000 0
0.440000 0.000000 0
0.460000 0.000000 0
0.480000 0.000000 0
0.500000 0.000000 0
0.520000 0.000000 0
0.540000 0.000000 0
0.560000 0.000000 0
0.580000 0.000000 0
0.600000 0.000000 0
0.620000 0.000000 0
0.640000 0.000000 0
0.660000 0.000000 0
0.680000 0.000000 0
0.700000 0.000000 0
0.720000 0.000000 0
0.740000 0.000000 0
0.760000 0.000000 0
0.780000 0.000000 0
0.800000 0.000000 0
0.820000 0.000000 0
0.840000 0.000000 0
0.860000 0.000000 0
0.880000 0.000000 0
0.900000 0.000000 0
0.920000 0.000000 0
0.940000 0.000000 0
0.960000 0.000000 0
0.980000 0.000000 0
1.000000 0.000000 0
0.000000 0.020000 0
0.020000 0.020000 0
0.040000 0.020000 0
0.060000 0.020000 0
0.080000 0.020000 0
0.100000 0.020000 0
0.120000 0.020000 0
0.140000 0.020000 0
0.160000 0.020000 0
0.180000 0.020000 0
0.200000 0.020000 0
0.220000 0.020000 0
0.240000 0.020000 0
0.260000 0.020000 0
0.280000 0.020000 0
0.300000 0.020000 0
0.320000 0.020000 0
0.340000 0.020000 0
0.360000 0.020000 0
0.380000 0.020000 0
0.400000 0.020000 0
0.420000 0.020000 0
0.440000 0.020000 0
0.460000 0.020000 0
0.480000 0.020000 0
0.500000 0.020000 0
0.520000 0.020000 0
0.540000 0.020000 0
0.560000 0.020000 0
0.580000 0.020000 0
0.600000 0.020000 0
0.620000 0.020000 0
0.640000 0.020000 0
0.660000 0.020000 0
0.680000 0.020000 0
0.700000 0.020000 0
0.720000 0.020000 0
0.740000 0.020000 0
0.760000 0.020000 0
0.780000 0.020000 0
0.800000 0.020000 0
0.820000 0.020000 0
0.840000 0.020000 0
0.860000 0.020000 0
0.880000 0.020000 0
0.900000 0.020000 0
0.920000 0.020000 0
0.940000 0.020000 0
0.960000 0.020000 0
0.980000 0.020000 0
1.000000 0.020000 0
0.000000 0.040000 0
0.020000 0.040000 0
0.040000 0.040000 0
0.060000 0.040000 0
0.080000 0.040000 0
0.100000 0.040000 0
0.120000 0.040000 0
0.140000 0.040000 0
0.160000 0.040000 0
0.180000 0.040000 0
0.200000 0.040000 0
0.220000 0.040000 0
0.240000 0.040000 0
0.260000 0.040000 0
0.280000 0.040000 0
0.300000 0.040000 0
0.320000 0.040000 0
0.340000 0.040000 0
0.360000 0.040000 0
0.380000 0.040000 0
0.400000 0.040000 0
0.420000 0.040000 0
0.440000 0.040000 0
0.460000 0.040000 0
0.480000 0.040000 0
0.500000 0.040000 0
0.520000 0.040000 0
0.540000 0.040000 0
0.560000 0.040000 0
0.580000 0.040000 0
0.600000 0.040000 0
0.620000 0.040000 0
0.640000 0.040000 0
0.660000 0.040000 0
0.680000 0.040000 0
0.700000 0.040000 0
0.720000 0.040000 0
0.740000 0.040000 0
0.760000 0.040000 0
0.780000 0.040000 0
0.800000 0.040000 0
0.820000 0.040000 0
0.840000 0.040000 0
0.860000 0.040000 0
0.880000 0.040000 0
0.900000 0.040000 0
0.920000 0.040000 0
0.940000 0.040000 0
0.960000 0.040000 0
0.980000 0.040000 0
1.000000 0.040000 0
0.000000 0.060000 0
0.020000 0.060000 0
0.040000 0.060000 0
0.060000 0.060000 0
0.080000 0.060000 0
0.100000 0.060000 0
0.120000 0.060000 0
0.140000 0.060000 0
0.160000 0.060000 0
0.180000 0.060000 0
0.200000 0.060000 0
0.220000 0.060000 0
0.240000 0.060000 0
0.260000 0.060000 0
0.280000 0.060000 0
0.300000 0.060000 0
0.320000 0.060000 0
0.340000 0.060000 0
0.360000 0.060000 0
0.380000 0.060000 0
0.400000 0.060000 0
0.420000 0.060000 0
0.440000 0.060000 0
0.460000 0.060000 0
0.480000 0.060000 0
0.500000 0.060000 0
0.520000 0.060000 0
0.540000 0.060000 0
0.560000 0.060000 0
0.580000 0.060000 0
0.600000 0.060000 0
0.620000 0.060000 0
0.640000 0.060000 0
0.660000 0.060000 0
0.680000 0.060000 0
0.700000 0.060000 0
0.720000 0.060000 0
0.740000 0.060000 0
0.760000 0.060000 0
0.780000 0.060000 0
0.800000 0.060000 0
0.820000 0.060000 0
0.840000 0.060000 0
0.860000 0.060000 0
0.880000 0.060000 0
0.900000 0.060000 0
0.920000 0.060000 0
0.940000 0.060000 0
0.960000 0.060000 0
0.980000 0.060000 0
1.000000 0.060000 0
0.000000 0.080000 0
0.020000 0.080000 0
0.040000 0.080000 0
0.060000 0.080000 0
0.080000 0.080000 0
0.100000 0.080000 0
0.120000 0.080000 0
0.140000 0.080000 0
0.160000 0.080000 0
0.180000 0.080000 0
0.200000 0.080000 0
0.220000 0.080000 0
0.240000 0.080000 0
0.260000 0.080000 0
0.280000 0.080000 0
0.300000 0.080000 0
0.320000 0.080000 0
0.340000 0.080000 0
0.360000 0.080000 0
0.380000 0.080000 0
0.400000 0.080000 0
0.420000 0.080000 0
0.440000 0.080000 0
0.460000 0.080000 0
0.480000 0.080000 0
0.500000 0.080000 0
0.520000 0.080000 0
0.540000 0.080000 0
0.560000 0.080000 0
0.580000 0.080000 0
0.600000 0.080000 0
0.620000 0.080000 0
0.640000 0.080000 0
0.660000 0.080000 0
0.680000 0.080000 0
0.700000 0.080000 0
0.720000 0.080000 0
0.740000 0.080000 0
0.760000 0.080000 0
0.780000 0.080000 0
0.800000 0.080000 0
0.820000 0.080000 0
0.840000 0.080000 0
0.860000 0.080000 0
0.880000 0.080000 0
0.900000 0.080000 0
0.920000 0.080000 0
0.940000 0.080000 0
0.960000 0.080000 0
0.980000 0.080000 0
1.000000 0.080000 0
0.000000 0.100000 0
0.020000 0.100000 0
0.040000 0.100000 0
0.060000 0.100000 0
0.080000 0.100000 0
0.100000 0.100000 0
0.120000 0.100000 0
0.140000 0.100000 0
0.160000 0.100000 0
0.180000 0.100000 0
0.200000 0.100000 0
0.220000 0.100000 0
0.240000 0.100000 0
0.260000 0.100000 0
0.280000 0.100000 0
0.300000 0.100000 0
0.320000 0.100000 0
0.340000 0.100000 0
0.360000 0.100000 0
0.380000 0.100000 0
0.400000 0.100000 0
0.420000 0.100000 0
0.440000 0.100000 0
0.460000 0.100000 0
0.480000 0.100000 0
0.500000 0.100000 0
0.520000 0.100000 0
0.540000 0.100000 0
0.560000 0.100000 0
0.580000 0.100000 0
0.600000 0.100000 0
0.620000 0.100000 0
0.640000 0.100000 0
0.660000 0.100000 0
0.680000 0.100000 0
0.700000 0.100000 0
0.720000 0.100000 0
0.740000 0.100000 0
0.760000 0.100000 0
0.780000 0.100000 0
0.800000 0.100000 0
0.820000 0.100000 0
0.840000 0.100000 0
0.860000 0.100000 0
0.880000 0.100000 0
0.900000 0.100000 0
0.920000 0.100000 0
0.940000 0.100000 0
0.960000 0.100000 0
0.980000 0.100000 0
1.000000 0.100000 0
0.000000 0.120000 0
0.020000 0.120000 0
0.040000 0.120000 0
0.060000 0.120000 0
0.080000 0.120000 0
0.100000 0.120000 0
0.120000 0.120000 0
0.140000 0.120000 0
0.160000 0.120000 0
0.180000 0.120000 0
0.200000 0.120000 0
0.220000 0.120000 0
0.240000 0.120000 0
0.260000 0.120000 0
0.280000 0.120000 0
0.300000 0.120000 0
0.320000 0.120000 0
0.340000 0.120000 0
0.360000 0.120000 0
0.380000 0.120000 0
0.400000 0.120000 0
0.420000 0.120000 0
0.440000 0.120000 0
0.460000 0.120000 0
0.480000 0.120000 0
0.500000 0.120000 0
0.520000 0.120000 0
0.540000 0.120000 0
0.560000 0.120000 0
0.580000 0.120000 0
0.600000 0.120000 0
0.620000 0.120000 0
0.640000 0.120000 0
0.660000 0.120000 0
0.680000 0.120000 0
0.700000 0.120000 0
0.720000 0.120000 0
0.740000 0.120000 0
0.760000 0.120000 0
0.780000 0.120000 0
0.800000 0.120000 0
0.820000 0.120000 0
0.840000 0.120000 0
0.860000 0.120000 0
0.880000 0.120000 0
0.900000 0.120000 0
0.920000 0.120000 0
0.940000 0.120000 0
0.960000 0.120000 0
0.980000 0.120000 0
1.000000 0.120000 0
0.000000 0.140000 0
0.020000 0.140000 0
0.040000 0.140000 0
0.060000 0.140000 0
0.080000 0.140000 0
0.100000 0.140000 0
0.120000 0.140000 0
0.140000 0.140000 0
0.160000 0.140000 0
0.180000 0.140000 0
0.200000 0.140000 0
0.220000 0.140000 0
0.240000 0.140000 0
0.260000 0.140000 0
0.280000 0.140000 0
0.300000 0.140000 0
0.320000 0.140000 0
0.340000 0.140000 0
0.360000 0.140000 0
0.380000 0.140000 0
0.400000 0.140000 0
0.420000 0.140000 0
0.440000 0.140000 0
0.460000 0.140000 0
0.480000 0.140000 0
0.500000 0.140000 0
0.520000 0.140000 0
0.540000 0.140000 0
0.560000 0.140000 0
0.580000 0.140000 0
0.600000 0.140000 0
0.620000 0.140000 0
0.640000 0.140000 0
0.660000 0.140000 0
0.680000 0.140000 0
0.700000 0.140000 0
0.720000 0.140000 0
0.740000 0.140000 0
0.760000 0.140000 0
0.780000 0.140000 0
0.800000 0.140000 0
0.820000 0.140000 0
0.840000 0.140000 0
0.860000 0.140000 0
0.880000 0.140000 0
0.900000 0.140000 0
0.920000 0.140000 0
0.940000 0.140000 0
0.960000 0.140000 0
0.980000 0.140000 0
1.000000 0.140000 0
0.000000 0.160000 0
0.020000 0.160000 0
0.040000 0.160000 0
0.060000 0.160000 0
0.080000 0.160000 0
0.100000 0.160000 0
0.120000 0.160000 0
0.140000 0.160000 0
0.160000 0.160000 0
0.180000 0.160000 0
0.200000 0.160000 0
0.220000 0.160000 0
0.240000 0.160000 0
0.260000 0.160000 0
0.280000 0.160000 0
0.300000 0.160000 0
0.320000 0.160000 0
0.340000 0.160000 0
0.360000 0.160000 0
0.380000 0.160000 0
0.400000 0.160000 0
0.420000 0.160000 0
0.440000 0.160000 0
0.460000 0.160000 0
0.480000 0.160000 0
0.500000 0.160000 0
0.520000 0.160000 0
0.540000 0.160000 0
0.560000 0.160000 0
0.580000 0.160000 0
0.600000 0.160000 0
0.620000 0.160000 0
0.640000 0.160000 0
0.660000 0.160000 0
0.680000 0.160000 0
0.700000 0.160000 0
0.720000 0.160000 0
0.740000 0.160000 0
0.760000 0.160000 0
0.780000 0.160000 0
0.800000 0.160000 0
0.820000 0.160000 0
0.840000 0.160000 0
0.860000 0.160000 0
0.880000 0.160000 0
0.900000 0.160000 0
0.920000 0.160000 0
0.940000 0.160000 0
0.960000 0.160000 0
0.980000 0.160000 0
1.000000 0.160000 0
0.000000 0.180000 0
0.020000 0.180000 0
0.040000 0.180000 0
0.060000 0.180000 0
0.080000 0.180000 0
0.100000 0.180000 0
0.120000 0.180000 0
0.140000 0.180000 0
0.160000 0.180000 0
0.180000 0.180000 0
0.200000 0.180000 0
0.220000 0.180000 0
0.240000 0.180000 0
0.260000 0.180000 0
0.280000 0.180000 0
0.300000 0.180000 0
0.320000 0.180000 0
0.340000 0.180000 0
0.360000 0.180000 0
0.380000 0.180000 0
0.400000 0.180000 0
0.420000 0.180000 0
0.440000 0.180000 0
0.460000 0.180000 0
0.480000 0.180000 0
0.500000 0.180000 0
0.520000 0.180000 0
0.540000 0.180000 0
0.560000 0.180000 0
0.580000 0.180000 0
0.600000 0.180000 0
0.620000 0.180000 0
[...]
POINT_DATA 2601 

VECTORS velocity float
0.000000 0.000000 0
0.000000 0.000000 0
0.000000 0.000000 0
0.000000 0.000000 0
-0.000000 0.000000 0
-0.000000 0.000000 0
-0.000000 0.000000 0
-0.000000 0.000000 0
0.000000 0.000000 0
0.000000 0.000000 0
0.000000 0.000000 0
0.000000 0.000000 0
0.000000 0.000000 0
-0.000000 0.000000 0
-0.000000 0.000000 0
-0.000000 0.000000 0
-0.000000 0.000000 0
-0.000000 0.000000 0
0.000000 0.000000 0
0.000000 0.000000 0
0.000000 0.000000 0
0.000000 0.000000 0
-0.000000 0.000000 0
-0.000000 0.000000 0
-0.000000 0.000000 0
-0.000000 0.000000 0
-0.000000 0.000000 0
-0.000000 0.000000 0
-0.000000 0.000000 0
-0.000000 0.000000 0
-0.000000 0.000000 0
-0.000000 0.000000 0
-0.000000 0.000000 0
-0.000000 0.000000 0
-0.000000 0.000000 0
-0.000000 0.000000 0
-0.000000 0.000000 0
-0.000000 0.000000 0
-0.000000 0.000000 0
-0.000000 0.000000 0
0.000000 0.000000 0
0.000000 0.000000 0
0.000000 0.000000 0
0.000000 0.000000 0
0.000000 0.000000 0
0.000000 0.000000 0
0.000000 0.000000 0
0.000000 0.000000 0
0.000000 0.000000 0
-0.000000 0.000000 0
0.000000 0.000000 0
0.000000 0.000000 0
0.000060 -0.000059 0
0.000081 -0.000023 0
-0.000014 0.000055 0
-0.000256 0.000143 0
-0.000645 0.000227 0
-0.001170 0.000301 0
-0.001812 0.000362 0
-0.002552 0.000411 0
-0.003370 0.000448 0
-0.004245 0.000475 0
-0.005160 0.000492 0
-0.006100 0.000501 0
-0.007048 0.000503 0
-0.007991 0.000497 0
-0.008917 0.000485 0
-0.009811 0.000466 0
-0.010663 0.000441 0
-0.011459 0.000409 0
-0.012187 0.000371 0
-0.012834 0.000326 0
-0.013389 0.000274 0
-0.013839 0.000216 0
-0.014174 0.000152 0
-0.014384 0.000082 0
-0.014460 0.000009 0
-0.014397 -0.000068 0
-0.014190 -0.000146 0
-0.013839 -0.000224 0
-0.013346 -0.000300 0
-0.012718 -0.000372 0
-0.011964 -0.000438 0
-0.011096 -0.000496 0
-0.010134 -0.000543 0
-0.009096 -0.000578 0
-0.008005 -0.000599 0
-0.006888 -0.000606 0
-0.005772 -0.000597 0
-0.004683 -0.000573 0
-0.003649 -0.000534 0
-0.002696 -0.000481 0
-0.001847 -0.000415 0
-0.001123 -0.000339 0
-0.000540 -0.000255 0
-0.000107 -0.000167 0
0.000172 -0.000079 0
0.000303 0.000001 0
0.000305 0.000066 0
0.000212 0.000100 0
0.000082 0.000082 0
0.000000 0.000000 0
0.000000 0.000000 0
0.000024 -0.000081 0
-0.000075 0.000075 0
-0.000386 0.000336 0
-0.000944 0.000630 0
-0.001751 0.000913 0
-0.002792 0.001168 0
-0.004038 0.001383 0
-0.005456 0.001558 0
-0.007013 0.001693 0
-0.008673 0.001791 0
-0.010406 0.001854 0
-0.012181 0.001887 0
-0.013971 0.001891 0
-0.015749 0.001869 0
-0.017491 0.001820 0
-0.019172 0.001746 0
-0.020768 0.001648 0
-0.022256 0.001524 0
-0.023613 0.001375 0
-0.024815 0.001202 0
-0.025840 0.001005 0
-0.026667 0.000785 0
-0.027277 0.000545 0
-0.027651 0.000286 0
-0.027777 0.000013 0
-0.027644 -0.000270 0
-0.027246 -0.000558 0
-0.026582 -0.000844 0
-0.025659 -0.001121 0
-0.024488 -0.001383 0
-0.023086 -0.001622 0
-0.021479 -0.001830 0
-0.019698 -0.002001 0
-0.017779 -0.002128 0
-0.015763 -0.002207 0
-0.013697 -0.002234 0
-0.011627 -0.002206 0
-0.009603 -0.002123 0
-0.007673 -0.001987 0
-0.005882 -0.001802 0
-0.004274 -0.001572 0
-0.002882 -0.001307 0
-0.001736 -0.001016 0
-0.000850 -0.000712 0
-0.000232 -0.000410 0
0.000131 -0.000133 0
0.000267 0.000091 0
0.000230 0.000223 0
0.000102 0.000212 0
0.000000 0.000000 0
0.000000 0.000000 0
-0.000057 0.000016 0
-0.000350 0.000386 0
-0.000947 0.000923 0
-0.001876 0.001509 0
-0.003133 0.002076 0
-0.004695 0.002589 0
-0.006526 0.003027 0
-0.008585 0.003386 0
-0.010827 0.003664 0
-0.013208 0.003868 0
-0.015685 0.004000 0
-0.018216 0.004066 0
-0.020764 0.004071 0
-0.023291 0.004018 0
-0.025763 0.003908 0
-0.028143 0.003744 0
-0.030399 0.003526 0
-0.032498 0.003254 0
-0.034405 0.002929 0
-0.036091 0.002553 0
-0.037523 0.002126 0
-0.038673 0.001652 0
-0.039515 0.001136 0
-0.040026 0.000583 0
-0.040188 0.000001 0
-0.039987 -0.000599 0
-0.039417 -0.001208 0
-0.038478 -0.001811 0
-0.037179 -0.002395 0
-0.035536 -0.002945 0
-0.033575 -0.003446 0
-0.031329 -0.003884 0
-0.028841 -0.004243 0
-0.026160 -0.004513 0
-0.023343 -0.004681 0
-0.020449 -0.004742 0
-0.017545 -0.004691 0
-0.014695 -0.004527 0
-0.011965 -0.004254 0
-0.009416 -0.003880 0
-0.007104 -0.003415 0
-0.005078 -0.002877 0
-0.003373 -0.002287 0
-0.002015 -0.001671 0
-0.001010 -0.001060 0
-0.000346 -0.000498 0
0.000012 -0.000034 0
0.000122 0.000265 0
0.000076 0.000312 0
0.000000 0.000000 0
0.000000 -0.000000 0
-0.000154 0.000268 0
-0.000676 0.000964 0
-0.001601 0.001863 0
-0.002936 0.002816 0
-0.004664 0.003733 0
-0.006755 0.004562 0
-0.009163 0.005274 0
-0.011839 0.005859 0
-0.014731 0.006315 0
-0.017785 0.006647 0
-0.020951 0.006862 0
-0.024178 0.006967 0
-0.027419 0.006967 0
-0.030628 0.006867 0
-0.033760 0.006672 0
-0.036773 0.006383 0
-0.039623 0.006002 0
-0.042268 0.005530 0
-0.044669 0.004968 0
-0.046786 0.004320 0
-0.048581 0.003588 0
-0.050018 0.002778 0
-0.051067 0.001898 0
-0.051699 0.000958 0
-0.051894 -0.000027 0
-0.051636 -0.001041 0
-0.050918 -0.002067 0
-0.049740 -0.003082 0
-0.048115 -0.004063 0
-0.046062 -0.004987 0
-0.043613 -0.005829 0
-0.040808 -0.006564 0
-0.037700 -0.007170 0
-0.034347 -0.007627 0
-0.030818 -0.007918 0
-0.027187 -0.008031 0
-0.023530 -0.007960 0
-0.019929 -0.007703 0
-0.016461 -0.007267 0
-0.013202 -0.006662 0
-0.010219 -0.005911 0
-0.007573 -0.005038 0
-0.005308 -0.004078 0
-0.003455 -0.003075 0
-0.002025 -0.002080 0
-0.001010 -0.001155 0
-0.000374 -0.000377 0
-0.000059 0.000159 0
0.000025 0.000334 0
0.000000 0.000000 0
0.000000 -0.000000 0
-0.000254 0.000691 0
-0.001019 0.001833 0
-0.002291 0.003183 0
-0.004051 0.004573 0
-0.006264 0.005896 0
-0.008887 0.007087 0
-0.011866 0.008111 0
-0.015143 0.008953 0
-0.018658 0.009610 0
-0.022352 0.010087 0
-0.026165 0.010393 0
-0.030041 0.010535 0
-0.033925 0.010521 0
-0.037763 0.010359 0
-0.041504 0.010053 0
-0.045097 0.009606 0
-0.048491 0.009021 0
-0.051638 0.008301 0
-0.054491 0.007447 0
-0.057004 0.006464 0
-0.059132 0.005358 0
-0.060836 0.004138 0
-0.062080 0.002817 0
-0.062832 0.001410 0
-0.063068 -0.000062 0
-0.062770 -0.001576 0
-0.061932 -0.003103 0
-0.060553 -0.004614 0
-0.058648 -0.006073 0
-0.056238 -0.007447 0
-0.053361 -0.008700 0
-0.050063 -0.009797 0
-0.046401 -0.010704 0
-0.042444 -0.011394 0
-0.038269 -0.011842 0
-0.033960 -0.012030 0
-0.029607 -0.011949 0
-0.025301 -0.011597 0
-0.021132 -0.010982 0
-0.017188 -0.010121 0
-0.013548 -0.009044 0
-0.010282 -0.007789 0
-0.007445 -0.006405 0
-0.005075 -0.004953 0
-0.003190 -0.003506 0
-0.001786 -0.002149 0
-0.000834 -0.000985 0
-0.000278 -0.000135 0
-0.000036 0.000253 0
0.000000 0.000000 0
0.000000 -0.000000 0
-0.000352 0.001287 0
-0.001362 0.003002 0
-0.002986 0.004895 0
-0.005177 0.006790 0
-0.007879 0.008570 0
-0.011034 0.010163 0
-0.014576 0.011529 0
-0.018440 0.012650 0
-0.022558 0.013523 0
-0.026864 0.014154 0
-0.031293 0.014552 0
-0.035782 0.014727 0
-0.040270 0.014689 0
-0.044698 0.014447 0
-0.049008 0.014005 0
-0.053142 0.013370 0
-0.057045 0.012543 0
-0.060662 0.011530 0
-0.063939 0.010334 0
-0.066826 0.008961 0
-0.069275 0.007420 0
-0.071238 0.005725 0
-0.072678 0.003893 0
-0.073558 0.001946 0
-0.073852 -0.000088 0
-0.073541 -0.002177 0
-0.072614 -0.004284 0
-0.071074 -0.006366 0
-0.068934 -0.008378 0
-0.066218 -0.010273 0
-0.062965 -0.012004 0
-0.059226 -0.013524 0
-0.055063 -0.014789 0
-0.050552 -0.015759 0
-0.045778 -0.016402 0
-0.040832 -0.016693 0
-0.035816 -0.016620 0
-0.030829 -0.016178 0
-0.025976 -0.015379 0
-0.021354 -0.014246 0
-0.017055 -0.012816 0
-0.013158 -0.011141 0
-0.009730 -0.009286 0
-0.006819 -0.007330 0
-0.004451 -0.005368 0
-0.002629 -0.003511 0
-0.001333 -0.001885 0
-0.000514 -0.000639 0
-0.000101 0.000057 0
0.000000 0.000000 0
0.000000 -0.000000 0
-0.000447 0.002053 0
-0.001697 0.004468 0
-0.003670 0.006998 0
-0.006289 0.009466 0
-0.009476 0.011753 0
-0.013157 0.013783 0
-0.017253 0.015516 0
-0.021689 0.016934 0
-0.026391 0.018034 0
-0.031286 0.018823 0
-0.036305 0.019311 0
-0.041379 0.019513 0
-0.046442 0.019438 0
-0.051429 0.019096 0
-0.056278 0.018496 0
-0.060927 0.017643 0
-0.065314 0.016541 0
-0.069380 0.015195 0
-0.073067 0.013612 0
-0.076320 0.011799 0
-0.079085 0.009770 0
-0.081313 0.007542 0
-0.082960 0.005137 0
-0.083988 0.002585 0
-0.084366 -0.000080 0
-0.084073 -0.002814 0
-0.083096 -0.005570 0
-0.081437 -0.008294 0
-0.079108 -0.010930 0
-0.076133 -0.013416 0
-0.072551 -0.015692 0
-0.068418 -0.017698 0
-0.063797 -0.019378 0
-0.058771 -0.020680 0
-0.053429 -0.021562 0
-0.047872 -0.021992 0
-0.042209 -0.021952 0
-0.036552 -0.021436 0
-0.031014 -0.020457 0
-0.025706 -0.019043 0
-0.020732 -0.017240 0
-0.016185 -0.015113 0
-0.012141 -0.012744 0
-0.008661 -0.010232 0
-0.005782 -0.007695 0
-0.003517 -0.005267 0
-0.001854 -0.003100 0
-0.000758 -0.001367 0
-0.000166 -0.000261 0
0.000000 0.000000 0
0.000000 -0.000000 0
-0.000537 0.002984 0
-0.002019 0.006226 0
-0.004332 0.009487 0
-0.007370 0.012596 0
-0.011033 0.015437 0
-0.015227 0.017938 0
-0.019864 0.020061 0
-0.024858 0.021788 0
-0.030126 0.023121 0
-0.035591 0.024069 0
-0.041177 0.024645 0
-0.046812 0.024864 0
-0.052425 0.024740 0
-0.057949 0.024283 0
-0.063316 0.023502 0
-0.068460 0.022405 0
-0.073316 0.020997 0
-0.077821 0.019284 0
-0.081914 0.017274 0
-0.085533 0.014979 0
-0.088622 0.012414 0
-0.091129 0.009600 0
-0.093004 0.006568 0
-0.094207 0.003352 0
-0.094703 -0.000004 0
-0.094467 -0.003447 0
-0.093484 -0.006919 0
-0.091752 -0.010355 0
-0.089281 -0.013683 0
-0.086094 -0.016829 0
-0.082231 -0.019719 0
-0.077745 -0.022278 0
-0.072704 -0.024435 0
-0.067193 -0.026127 0
-0.061306 -0.027300 0
-0.055152 -0.027913 0
-0.048848 -0.027940 0
-0.042517 -0.027373 0
-0.036283 -0.026225 0
-0.030271 -0.024528 0
-0.024597 -0.022338 0
-0.019368 -0.019732 0
-0.014676 -0.016810 0
-0.010595 -0.013690 0
-0.007174 -0.010513 0
-0.004440 -0.007438 0
-0.002392 -0.004644 0
-0.001006 -0.002327 0
-0.000231 -0.000701 0
0.000000 0.000000 0
0.000000 0.000000 0
-0.000623 0.004073 0
-0.002328 0.008264 0
-0.004968 0.012349 0
-0.008410 0.016166 0
-0.012534 0.019610 0
-0.017227 0.022614 0
-0.022388 0.025146 0
-0.027921 0.027196 0
-0.033737 0.028767 0
-0.039752 0.029874 0
-0.045885 0.030533 0
-0.052060 0.030761 0
-0.058205 0.030575 0
-0.064246 0.029987 0
-0.070115 0.029007 0
-0.075742 0.027643 0
-0.081060 0.025903 0
-0.086001 0.023793 0
-0.090501 0.021323 0
-0.094496 0.018508 0
-0.097925 0.015366 0
-0.100732 0.011924 0
-0.102865 0.008215 0
-0.104278 0.004283 0
-0.104933 0.000180 0
-0.104799 -0.004033 0
-0.103859 -0.008284 0
-0.102105 -0.012498 0
-0.099543 -0.016588 0
-0.096194 -0.020466 0
-0.092096 -0.024042 0
-0.087299 -0.027225 0
-0.081873 -0.029930 0
-0.075904 -0.032078 0
-0.069491 -0.033602 0
-0.062748 -0.034450 0
-0.055801 -0.034587 0
-0.048784 -0.034001 0
-0.041833 -0.032703 0
-0.035088 -0.030729 0
-0.028679 -0.028143 0
-0.022731 -0.025034 0
-0.017352 -0.021517 0
-0.012632 -0.017735 0
-0.008635 -0.013850 0
-0.005403 -0.010048 0
-0.002949 -0.006534 0
-0.001260 -0.003528 0
-0.000297 -0.001267 0
0.000000 0.000000 0
0.000000 0.000000 0
-0.000704 0.005312 0
-0.002620 0.010571 0
-0.005572 0.015569 0
-0.009402 0.020161 0
-0.013968 0.024254 0
-0.019141 0.027793 0
-0.024807 0.030755 0
-0.030859 0.033137 0
-0.037202 0.034952 0
-0.043746 0.036217 0
-0.050405 0.036954 0
-0.057102 0.037184 0
-0.063760 0.036925 0
-0.070304 0.036193 0
-0.076663 0.034998 0
-0.082766 0.033350 0
-0.088541 0.031256 0
-0.093921 0.028725 0
-0.098837 0.025769 0
-0.103222 0.022403 0
-0.107014 0.018650 0
-0.110150 0.014541 0
-0.112576 0.010114 0
-0.114240 0.005419 0
-0.115100 0.000517 0
-0.115120 -0.004521 0
-0.114277 -0.009614 0
-0.112556 -0.014670 0
-0.109960 -0.019593 0
-0.106503 -0.024277 0
-0.102219 -0.028615 0
-0.097155 -0.032501 0
-0.091381 -0.035831 0
-0.084980 -0.038510 0
-0.078057 -0.040456 0
-0.070731 -0.041602 0
-0.063136 -0.041904 0
-0.055415 -0.041341 0
-0.047721 -0.039921 0
-0.040207 -0.037682 0
-0.033023 -0.034694 0
-0.026310 -0.031059 0
-0.020198 -0.026909 0
-0.014793 -0.022407 0
-0.010180 -0.017741 0
-0.006416 -0.013124 0
-0.003531 -0.008787 0
-0.001522 -0.004979 0
-0.000363 -0.001961 0
0.000000 0.000000 0
0.000000 0.000000 0
-0.000780 0.006694 0
-0.002896 0.013132 0
-0.006143 0.019130 0
-0.010341 0.024561 0
-0.015327 0.029349 0
-0.020957 0.033454 0
-0.027104 0.036865 0
-0.033653 0.039591 0
-0.040500 0.041653 0
-0.047550 0.043077 0
-0.054716 0.043889 0
-0.061915 0.044115 0
-0.069069 0.043777 0
-0.076102 0.042890 0
-0.082941 0.041468 0
-0.089513 0.039521 0
-0.095746 0.037058 0
-0.101570 0.034088 0
-0.106914 0.030625 0
-0.111708 0.026685 0
-0.115887 0.022294 0
-0.119386 0.017486 0
-0.122145 0.012305 0
-0.124107 0.006807 0
-0.125224 0.001060 0
-0.125454 -0.004856 0
-0.124767 -0.010848 0
-0.123142 -0.016814 0
-0.120572 -0.022641 0
-0.117067 -0.028207 0
-0.112651 -0.033390 0
-0.107369 -0.038063 0
-0.101286 -0.042105 0
-0.094485 -0.045401 0
-0.087071 -0.047851 0
-0.079168 -0.049371 0
-0.070918 -0.049903 0
-0.062475 -0.049416 0
-0.054007 -0.047912 0
-0.045684 -0.045428 0
-0.037677 -0.042039 0
-0.030149 -0.037858 0
-0.023249 -0.033035 0
-0.017108 -0.027753 0
-0.011831 -0.022226 0
-0.007496 -0.016697 0
-0.004148 -0.011428 0
-0.001799 -0.006696 0
-0.000432 -0.002789 0
0.000000 0.000000 0
0.000000 0.000000 0
-0.000851 0.008208 0
-0.003153 0.015933 0
-0.006677 0.023013 0
-0.011220 0.029344 0
-0.016601 0.034870 0
-0.022662 0.039571 0
-0.029264 0.043451 0
-0.036283 0.046533 0
-0.043609 0.048849 0
-0.051142 0.050433 0
-0.058791 0.051319 0
-0.066472 0.051537 0
-0.074105 0.051113 0
-0.081613 0.050065 0
-0.088922 0.048409 0
-0.095958 0.046155 0
-0.102649 0.043313 0
-0.108923 0.039892 0
-0.114708 0.035907 0
-0.119932 0.031377 0
-0.124527 0.026328 0
-0.128423 0.020798 0
-0.131556 0.014834 0
-0.133866 0.008498 0
-0.135295 0.001865 0
-0.135797 -0.004978 0
-0.135330 -0.011926 0
-0.133867 -0.018865 0
-0.131391 -0.025668 0
-0.127902 -0.032198 0
-0.123417 -0.038312 0
-0.117972 -0.043866 0
-0.111627 -0.048715 0
-0.104462 -0.052725 0
-0.096582 -0.055773 0
-0.088113 -0.057755 0
-0.079205 -0.058596 0
-0.070024 -0.058251 0
-0.060752 -0.056712 0
-0.051579 -0.054012 0
-0.042697 -0.050230 0
-0.034295 -0.045488 0
-0.026548 -0.039950 0
-0.019612 -0.033824 0
-0.013617 -0.027353 0
-0.008662 -0.020807 0
-0.004813 -0.014484 0
-0.002097 -0.008695 0
-0.000506 -0.003760 0
0.000000 0.000000 0
0.000000 0.000000 0
-0.000917 0.009847 0
-0.003392 0.018958 0
-0.007171 0.027196 0
-0.012034 0.034485 0
-0.017783 0.040792 0
-0.024246 0.046117 0
-0.031274 0.050486 0
-0.038733 0.053936 0
-0.046509 0.056512 0
-0.054497 0.058259 0
-0.062604 0.059219 0
-0.070744 0.059429 0
-0.078835 0.058917 0
-0.086802 0.057707 0
-0.094569 0.055813 0
-0.102063 0.053249 0
-0.109212 0.050023 0
-0.115941 0.046147 0
-0.122179 0.041634 0
-0.127853 0.036504 0
-0.132890 0.030785 0
-0.137219 0.024516 0
-0.140770 0.017748 0
-0.143477 0.010546 0
-0.145277 0.002991 0
-0.146112 -0.004821 0
-0.145935 -0.012778 0
-0.144705 -0.020754 0
-0.142396 -0.028606 0
-0.138996 -0.036181 0
-0.134511 -0.043319 0
-0.128969 -0.049853 0
-0.122419 -0.055615 0
-0.114936 -0.060447 0
-0.106623 -0.064200 0
-0.097607 -0.066748 0
-0.088045 -0.067992 0
-0.078113 -0.067869 0
-0.068010 -0.066357 0
-0.057945 -0.063483 0
-0.048136 -0.059323 0
-0.038799 -0.054008 0
-0.030139 -0.047718 0
-0.022341 -0.040684 0
-0.015565 -0.033176 0
-0.009935 -0.025501 0
-0.005538 -0.017993 0
-0.002421 -0.011002 0
-0.000587 -0.004886 0
0.000000 0.000000 0
0.000000 -0.000000 0
-0.000977 0.011599 0
-0.003609 0.022187 0
-0.007622 0.031656 0
-0.012777 0.039956 0
-0.018864 0.047083 0
-0.025697 0.053062 0
-0.033116 0.057938 0
-0.040984 0.061769 0
-0.049177 0.064613 0
-0.057590 0.066528 0
-0.066126 0.067565 0
-0.074698 0.067768 0
-0.083226 0.067171 0
-0.091631 0.065799 0
-0.099842 0.063670 0
-0.107783 0.060797 0
-0.115384 0.057190 0
-0.122572 0.052860 0
-0.129272 0.047819 0
-0.135411 0.042088 0
-0.140916 0.035694 0
-0.145710 0.028678 0
-0.149720 0.021092 0
-0.152874 0.013005 0
-0.155101 0.004500 0
-0.156335 -0.004320 0
-0.156517 -0.013334 0
-0.155596 -0.022404 0
-0.153532 -0.031377 0
-0.150301 -0.040082 0
-0.145896 -0.048339 0
-0.140330 -0.055958 0
-0.133643 -0.062748 0
-0.125901 -0.068521 0
-0.117201 -0.073101 0
-0.107670 -0.076333 0
-0.097468 -0.078091 0
-0.086783 -0.078287 0
-0.075827 -0.076881 0
-0.064833 -0.073886 0
-0.054045 -0.069376 0
-0.043711 -0.063485 0
-0.034067 -0.056408 0
-0.025335 -0.048398 0
-0.017707 -0.039759 0
-0.011337 -0.030834 0
-0.006339 -0.021998 0
-0.002780 -0.013647 0
-0.000676 -0.006181 0
0.000000 -0.000000 0
0.000000 -0.000000 0
-0.001031 0.013455 0
-0.003803 0.025602 0
-0.008026 0.036366 0
-0.013444 0.045727 0
-0.019835 0.053711 0
-0.027002 0.060370 0
-0.034777 0.065773 0
-0.043015 0.069997 0
-0.051591 0.073118 0
-0.060393 0.075207 0
-0.069325 0.076327 0
-0.078299 0.076529 0
-0.087235 0.075851 0
-0.096056 0.074323 0
-0.104689 0.071965 0
-0.113063 0.068791 0
-0.121107 0.064811 0
-0.128748 0.060034 0
-0.135914 0.054474 0
-0.142531 0.048148 0
-0.148521 0.041084 0
-0.153808 0.033320 0
-0.158314 0.024912 0
-0.161960 0.015926 0
-0.164668 0.006452 0
-0.166364 -0.003405 0
-0.166976 -0.013518 0
-0.166442 -0.023738 0
-0.164707 -0.033900 0
-0.161732 -0.043818 0
-0.157493 -0.053291 0
-0.151990 -0.062106 0
-0.145248 -0.070044 0
-0.137320 -0.076889 0
-0.128294 -0.082430 0
-0.118295 -0.086480 0
-0.107483 -0.088880 0
-0.096054 -0.089511 0
-0.084235 -0.088307 0
-0.072283 -0.085264 0
-0.060469 -0.080445 0
-0.049075 -0.073986 0
-0.038375 -0.066094 0
-0.028631 -0.057044 0
-0.020072 -0.047174 0
-0.012890 -0.036869 0
-0.007229 -0.026551 0
-0.003180 -0.016665 0
-0.000776 -0.007665 0
0.000000 -0.000000 0
0.000000 -0.000000 0
-0.001078 0.015402 0
-0.003972 0.029182 0
-0.008379 0.041298 0
-0.014029 0.051765 0
-0.020687 0.060640 0
-0.028149 0.068004 0
-0.036240 0.073952 0
-0.044809 0.078582 0
-0.053726 0.081990 0
-0.062879 0.084262 0
-0.072170 0.085472 0
-0.081510 0.085678 0
-0.090820 0.084928 0
-0.100026 0.083253 0
-0.109056 0.080678 0
-0.117840 0.077215 0
-0.126310 0.072875 0
-0.134394 0.067667 0
-0.142021 0.061601 0
-0.149117 0.054695 0
-0.155604 0.046972 0
-0.161404 0.038471 0
-0.166434 0.029244 0
-0.170611 0.019358 0
-0.173849 0.008904 0
-0.176065 -0.002012 0
-0.177177 -0.013255 0
-0.177108 -0.024673 0
-0.175788 -0.036087 0
-0.173161 -0.047296 0
-0.169187 -0.058081 0
-0.163844 -0.068204 0
-0.157142 -0.077419 0
-0.149117 -0.085474 0
-0.139846 -0.092125 0
-0.129445 -0.097144 0
-0.118070 -0.100332 0
-0.105925 -0.101534 0
-0.093249 -0.100651 0
-0.080321 -0.097652 0
-0.067441 -0.092584 0
-0.054929 -0.085578 0
-0.043102 -0.076852 0
-0.032264 -0.066701 0
-0.022692 -0.055499 0
-0.014618 -0.043677 0
-0.008223 -0.031709 0
-0.003628 -0.020100 0
-0.000890 -0.009361 0
0.000000 -0.000000 0
0.000000 -0.000000 0
-0.001117 0.017427 0
-0.004115 0.032903 0
-0.008677 0.046423 0
-0.014525 0.058036 0
-0.021412 0.067832 0
-0.029128 0.075923 0
-0.037491 0.082433 0
-0.046346 0.087483 0
-0.055560 0.091188 0
-0.065019 0.093651 0
-0.074625 0.094958 0
-0.084290 0.095179 0
-0.093935 0.094367 0
-0.103488 0.092559 0
-0.112880 0.089780 0
-0.122044 0.086045 0
-0.130913 0.081365 0
-0.139420 0.075746 0
-0.147493 0.069197 0
-0.155060 0.061731 0
-0.162045 0.053371 0
-0.168366 0.044150 0
-0.173939 0.034118 0
-0.178676 0.023341 0
-0.182485 0.011907 0
-0.185274 -0.000077 0
-0.186949 -0.012475 0
-0.187421 -0.025127 0
-0.186603 -0.037847 0
-0.184420 -0.050420 0
-0.180813 -0.062608 0
-0.175740 -0.074151 0
-0.169188 -0.084771 0
-0.161175 -0.094184 0
-0.151759 -0.102103 0
-0.141043 -0.108256 0
-0.129178 -0.112400 0
-0.116366 -0.114332 0
-0.102859 -0.113911 0
-0.088953 -0.111072 0
-0.074982 -0.105837 0
-0.061303 -0.098325 0
-0.048279 -0.088758 0
-0.036267 -0.077454 0
-0.025593 -0.064820 0
-0.016541 -0.051337 0
-0.009335 -0.037541 0
-0.004133 -0.023999 0
-0.001018 -0.011294 0
0.000000 -0.000000 0
0.000000 0.000000 0
-0.001148 0.019517 0
-0.004230 0.036743 0
-0.008919 0.051708 0
-0.014926 0.064500 0
-0.022002 0.075243 0
-0.029927 0.084083 0
-0.038515 0.091170 0
-0.047608 0.096651 0
-0.057070 0.100664 0
-0.066787 0.103327 0
-0.076659 0.104742 0
-0.086600 0.104988 0
-0.096532 0.104126 0
-0.106387 0.102199 0
-0.116098 0.099234 0