# vtk DataFile Version 2.0
generated by CFD-lab course output (written by Tobias Neckel) 
ASCII

DATASET STRUCTURED_GRID
DIMENSIONS  51 51 1 
POINTS 2601 float

0.000000 0.000000 0
0.020000 0.000000 0
0.040000 0.000000 0
0.060000 0.000000 0
0.080000 0.000000 0
0.100000 0.000000 0
0.120000 0.000000 0
0.140000 0.000000 0
0.160000 0.000000 0
0.180000 0.000000 0
0.200000 0.000000 0
0.220000 0.000000 0
0.240000 0.000000 0
0.260000 0.000000 0
0.280000 0.000000 0
0.300000 0.000000 0
0.320000 0.000000 0
0.340000 0.000000 0
0.360000 0.000000 0
0.380000 0.000000 0
0.400000 0.000000 0
0.420000 0.000000 0
0.440000 0.000000 0
0.460000 0.000000 0
0.480000 0.000000 0
0.500000 0.000000 0
0.520000 0.000000 0
0.540000 0.000000 0
0.560000 0.000000 0
0.580000 0.000000 0
0.600000 0.000000 0
0.620000 0.000000 0
0.640000 0.000000 0
0.660000 0.000000 0
0.680000 0.000000 0
0.700000 0.000000 0
0.720000 0.000000 0
0.740000 0.000000 0
0.760000 0.000000 0
0.780000 0.000000 0
0.800000 0.000000 0
0.820000 0.000000 0
0.840000 0.000000 0
0.860000 0.000000 0
0.880000 0.000000 0
0.900000 0.000000 0
0.920000 0.000000 0
0.940000 0.000000 0
0.960000 0.000000 0
0.980000 0.000000 0
1.000000 0.000000 0
0.000000 0.020000 0
0.020000 0.020000 0
0.040000 0.020000 0
0.060000 0.020000 0
0.080000 0.020000 0
0.100000 0.020000 0
0.120000 0.020000 0
0.140000 0.020000 0
0.160000 0.020000 0
0.180000 0.020000 0
0.200000 0.020000 0
0.220000 0.020000 0
0.240000 0.020000 0
0.260000 0.020000 0
0.280000 0.020000 0
0.300000 0.020000 0
0.320000 0.020000 0
0.340000 0.020000 0
0.360000 0.020000 0
0.380000 0.020000 0
0.400000 0.020000 0
0.420000 0.020000 0
0.440000 0.020000 0
0.460000 0.020000 0
0.480000 0.020000 0
0.500000 0.020000 0
0.520000 0.020000 0
0.540000 0.020000 0
0.560000 0.020000 0
0.580000 0.020000 0
0.600000 0.020000 0
0.620000 0.020000 0
0.640000 0.020000 0
0.660000 0.020000 0
0.680000 0.020000 0
0.700000 0.020000 0
0.720000 0.020000 0
0.740000 0.020000 0
0.760000 0.020000 0
0.780000 0.020000 0
0.800000 0.020000 0
0.820000 0.020000 0
0.840000 0.020000 0
0.860000 0.020000 0
0.880000 0.020000 0
0.900000 0.020000 0
0.920000 0.020000 0
0.940000 0.020000 0
0.960000 0.020000 0
0.980000 0.020000 0
1.000000 0.020000 0
0.000000 0.040000 0
0.020000 0.040000 0
0.040000 0.040000 0
0.060000 0.040000 0
0.080000 0.040000 0
0.100000 0.040000 0
0.120000 0.040000 0
0.140000 0.040000 0
0.160000 0.040000 0
0.180000 0.040000 0
0.200000 0.040000 0
0.220000 0.040000 0
0.240000 0.040000 0
0.260000 0.040000 0
0.280000 0.040000 0
0.300000 0.040000 0
0.320000 0.040000 0
0.340000 0.040000 0
0.360000 0.040000 0
0.380000 0.040000 0
0.400000 0.040000 0
0.420000 0.040000 0
0.440000 0.040000 0
0.460000 0.040000 0
0.480000 0.040000 0
0.500000 0.040000 0
0.520000 0.040000 0
0.540000 0.040000 0
0.560000 0.040000 0
0.580000 0.040000 0
0.600000 0.040000 0
0.620000 0.040000 0
0.640000 0.040000 0
0.660000 0.040000 0
0.680000 0.040000 0
0.700000 0.040000 0
0.720000 0.040000 0
0.740000 0.040000 0
0.760000 0.040000 0
0.780000 0.040000 0
0.800000 0.040000 0
0.820000 0.040000 0
0.840000 0.040000 0
0.860000 0.040000 0
0.880000 0.040000 0
0.900000 0.040000 0
0.920000 0.040000 0
0.940000 0.040000 0
0.960000 0.040000 0
0.980000 0.040000 0
1.000000 0.040000 0
0.000000 0.060000 0
0.020000 0.060000 0
0.040000 0.060000 0
0.060000 0.060000 0
0.080000 0.060000 0
0.100000 0.060000 0
0.120000 0.060000 0
0.140000 0.060000 0
0.160000 0.060000 0
0.180000 0.060000 0
0.200000 0.060000 0
0.220000 0.060000 0
0.240000 0.060000 0
0.260000 0.060000 0
0.280000 0.060000 0
0.300000 0.060000 0
0.320000 0.060000 0
0.340000 0.060000 0
0.360000 0.060000 0
0.380000 0.060000 0
0.400000 0.060000 0
0.420000 0.060000 0
0.440000 0.060000 0
0.460000 0.060000 0
0.480000 0.060000 0
0.500000 0.060000 0
0.520000 0.060000 0
0.540000 0.060000 0
0.560000 0.060000 0
0.580000 0.060000 0
0.600000 0.060000 0
0.620000 0.060000 0
0.640000 0.060000 0
0.660000 0.060000 0
0.680000 0.060000 0
0.700000 0.060000 0
0.720000 0.060000 0
0.740000 0.060000 0
0.760000 0.060000 0
0.780000 0.060000 0
0.800000 0.060000 0
0.820000 0.060000 0
0.840000 0.060000 0
0.860000 0.060000 0
0.880000 0.060000 0
0.900000 0.060000 0
0.920000 0.060000 0
0.940000 0.060000 0
0.960000 0.060000 0
0.980000 0.060000 0
1.000000 0.060000 0
0.000000 0.080000 0
0.020000 0.080000 0
0.040000 0.080000 0
0.060000 0.080000 0
0.080000 0.080000 0
0.100000 0.080000 0
0.120000 0.080000 0
0.140000 0.080000 0
0.160000 0.080000 0
0.180000 0.080000 0
0.200000 0.080000 0
0.220000 0.080000 0
0.240000 0.080000 0
0.260000 0.080000 0
0.280000 0.080000 0
0.300000 0.080000 0
0.320000 0.080000 0
0.340000 0.080000 0
0.360000 0.080000 0
0.380000 0.080000 0
0.400000 0.080000 0
0.420000 0.080000 0
0.440000 0.080000 0
0.460000 0.080000 0
0.480000 0.080000 0
0.500000 0.080000 0
0.520000 0.080000 0
0.540000 0.080000 0
0.560000 0.080000 0
0.580000 0.080000 0
0.600000 0.080000 0
0.620000 0.080000 0
0.640000 0.080000 0
0.660000 0.080000 0
0.680000 0.080000 0
0.700000 0.080000 0
0.720000 0.080000 0
0.740000 0.080000 0
0.760000 0.080000 0
0.780000 0.080000 0
0.800000 0.080000 0
0.820000 0.080000 0
0.840000 0.080000 0
0.860000 0.080000 0
0.880000 0.080000 0
0.900000 0.080000 0
0.920000 0.080000 0
0.940000 0.080000 0
0.960000 0.080000 0
0.980000 0.080000 0
1.000000 0.080000 0
0.000000 0.100000 0
0.020000 0.100000 0
0.040000 0.100000 0
0.060000 0.100000 0
0.080000 0.100000 0
0.100000 0.100000 0
0.120000 0.100000 0
0.140000 0.100000 0
0.160000 0.100000 0
0.180000 0.100000 0
0.200000 0.100000 0
0.220000 0.100000 0
0.240000 0.100000 0
0.260000 0.100000 0
0.280000 0.100000 0
0.300000 0.100000 0
0.320000 0.100000 0
0.340000 0.100000 0
0.360000 0.100000 0
0.380000 0.100000 0
0.400000 0.100000 0
0.420000 0.100000 0
0.440000 0.100000 0
0.460000 0.100000 0
0.480000 0.100000 0
0.500000 0.100000 0
0.520000 0.100000 0
0.540000 0.100000 0
0.560000 0.100000 0
0.580000 0.100000 0
0.600000 0.100000 0
0.620000 0.100000 0
0.640000 0.100000 0
0.660000 0.100000 0
0.680000 0.100000 0
0.700000 0.100000 0
0.720000 0.100000 0
0.740000 0.100000 0
0.760000 0.100000 0
0.780000 0.100000 0
0.800000 0.100000 0
0.820000 0.100000 0
0.840000 0.100000 0
0.860000 0.100000 0
0.880000 0.100000 0
0.900000 0.100000 0
0.920000 0.100000 0
0.940000 0.100000 0
0.960000 0.100000 0
0.980000 0.100000 0
1.000000 0.100000 0
0.000000 0.120000 0
0.020000 0.120000 0
0.040000 0.120000 0
0.060000 0.120000 0
0.080000 0.120000 0
0.100000 0.120000 0
0.120000 0.120000 0
0.140000 0.120000 0
0.160000 0.120000 0
0.180000 0.120000 0
0.200000 0.120000 0
0.220000 0.120000 0
0.240000 0.120000 0
0.260000 0.120000 0
0.280000 0.120000 0
0.300000 0.120000 0
0.320000 0.120000 0
0.340000 0.120000 0
0.360000 0.120000 0
0.380000 0.120000 0
0.400000 0.120000 0
0.420000 0.120000 0
0.440000 0.120000 0
0.460000 0.120000 0
0.480000 0.120000 0
0.500000 0.120000 0
0.520000 0.120000 0
0.540000 0.120000 0
0.560000 0.120000 0
0.580000 0.120000 0
0.600000 0.120000 0
0.620000 0.120000 0
0.640000 0.120000 0
0.660000 0.120000 0
0.680000 0.120000 0
0.700000 0.120000 0
0.720000 0.120000 0
0.740000 0.120000 0
0.760000 0.120000 0
0.780000 0.120000 0
0.800000 0.120000 0
0.820000 0.120000 0
0.840000 0.120000 0
0.860000 0.120000 0
0.880000 0.120000 0
0.900000 0.120000 0
0.920000 0.120000 0
0.940000 0.120000 0
0.960000 0.120000 0
0.980000 0.120000 0
1.000000 0.120000 0
0.000000 0.140000 0
0.020000 0.140000 0
0.040000 0.140000 0
0.060000 0.140000 0
0.080000 0.140000 0
0.100000 0.140000 0
0.120000 0.140000 0
0.140000 0.140000 0
0.160000 0.140000 0
0.180000 0.140000 0
0.200000 0.140000 0
0.220000 0.140000 0
0.240000 0.140000 0
0.260000 0.140000 0
0.280000 0.140000 0
0.300000 0.140000 0
0.320000 0.140000 0
0.340000 0.140000 0
0.360000 0.140000 0
0.380000 0.140000 0
0.400000 0.140000 0
0.420000 0.140000 0
0.440000 0.140000 0
0.460000 0.140000 0
0.480000 0.140000 0
0.500000 0.140000 0
0.520000 0.140000 0
0.540000 0.140000 0
0.560000 0.140000 0
0.580000 0.140000 0
0.600000 0.140000 0
0.620000 0.140000 0
0.640000 0.140000 0
0.660000 0.140000 0
0.680000 0.140000 0
0.700000 0.140000 0
0.720000 0.140000 0
0.740000 0.140000 0
0.760000 0.140000 0
0.780000 0.140000 0
0.800000 0.140000 0
0.820000 0.140000 0
0.840000 0.140000 0
0.860000 0.140000 0
0.880000 0.140000 0
0.900000 0.140000 0
0.920000 0.140000 0
0.940000 0.140000 0
0.960000 0.140000 0
0.980000 0.140000 0
1.000000 0.140000 0
0.000000 0.160000 0
0.020000 0.160000 0
0.040000 0.160000 0
0.060000 0.160000 0
0.080000 0.160000 0
0.100000 0.160000 0
0.120000 0.160000 0
0.140000 0.160000 0
0.160000 0.160000 0
0.180000 0.160000 0
0.200000 0.160000 0
0.220000 0.160000 0
0.240000 0.160000 0
0.260000 0.160000 0
0.280000 0.160000 0
0.300000 0.160000 0
0.320000 0.160000 0
0.340000 0.160000 0
0.360000 0.160000 0
0.380000 0.160000 0
0.400000 0.160000 0
0.420000 0.160000 0
0.440000 0.160000 0
0.460000 0.160000 0
0.480000 0.160000 0
0.500000 0.160000 0
0.520000 0.160000 0
0.540000 0.160000 0
0.560000 0.160000 0
0.580000 0.160000 0
0.600000 0.160000 0
0.620000 0.160000 0
0.640000 0.160000 0
0.660000 0.160000 0
0.680000 0.160000 0
0.700000 0.160000 0
0.720000 0.160000 0
0.740000 0.160000 0
0.760000 0.160000 0
0.780000 0.160000 0
0.800000 0.160000 0
0.820000 0.160000 0
0.840000 0.160000 0
0.860000 0.160000 0
0.880000 0.160000 0
0.900000 0.160000 0
0.920000 0.160000 0
0.940000 0.160000 0
0.960000 0.160000 0
0.980000 0.160000 0
1.000000 0.160000 0
0.000000 0.180000 0
0.020000 0.180000 0
0.040000 0.180000 0
0.060000 0.180000 0
0.080000 0.180000 0
0.100000 0.180000 0
0.120000 0.180000 0
0.140000 0.180000 0
0.160000 0.180000 0
0.180000 0.180000 0
0.200000 0.180000 0
0.220000 0.180000 0
0.240000 0.180000 0
0.260000 0.180000 0
0.280000 0.180000 0
0.300000 0.180000 0
0.320000 0.180000 0
0.340000 0.180000 0
0.360000 0.180000 0
0.380000 0.180000 0
0.400000 0.180000 0
0.420000 0.180000 0
0.440000 0.180000 0
0.460000 0.180000 0
0.480000 0.180000 0
0.500000 0.180000 0
0.520000 0.180000 0
0.540000 0.180000 0
0.560000 0.180000 0
0.580000 0.180000 0
0.600000 0.180000 0
0.620000 0.180000 0
[...]
POINT_DATA 2601 

VECTORS velocity float
0.000000 0.000000 0
0.000000 0.000000 0
-0.000000 0.000000 0
-0.000000 0.000000 0
-0.000000 0.000000 0
-0.000000 0.000000 0
0.000000 0.000000 0
0.000000 0.000000 0
0.000000 0.000000 0
0.000000 0.000000 0
-0.000000 0.000000 0
-0.000000 0.000000 0
-0.000000 0.000000 0
-0.000000 0.000000 0
-0.000000 0.000000 0
-0.000000 0.000000 0
0.000000 0.000000 0
0.000000 0.000000 0
-0.000000 0.000000 0
-0.000000 0.000000 0
-0.000000 0.000000 0
-0.000000 0.000000 0
-0.000000 0.000000 0
-0.000000 0.000000 0
-0.000000 0.000000 0
-0.000000 0.000000 0
-0.000000 0.000000 0
-0.000000 0.000000 0
-0.000000 0.000000 0
-0.000000 0.000000 0
-0.000000 0.000000 0
-0.000000 0.000000 0
-0.000000 0.000000 0
-0.000000 0.000000 0
-0.000000 0.000000 0
-0.000000 0.000000 0
-0.000000 0.000000 0
-0.000000 0.000000 0
-0.000000 0.000000 0
0.000000 0.000000 0
0.000000 0.000000 0
0.000000 0.000000 0
0.000000 0.000000 0
0.000000 0.000000 0
0.000000 0.000000 0
0.000000 0.000000 0
0.000000 0.000000 0
0.000000 0.000000 0
0.000000 0.000000 0
-0.000000 0.000000 0
0.000000 0.000000 0
0.000000 0.000000 0
0.000059 -0.000059 0
0.000078 -0.000022 0
-0.000018 0.000055 0
-0.000257 0.000143 0
-0.000642 0.000226 0
-0.001162 0.000299 0
-0.001799 0.000359 0
-0.002531 0.000407 0
-0.003340 0.000443 0
-0.004206 0.000470 0
-0.005111 0.000487 0
-0.006040 0.000496 0
-0.006977 0.000497 0
-0.007910 0.000492 0
-0.008825 0.000480 0
-0.009709 0.000461 0
-0.010551 0.000436 0
-0.011339 0.000405 0
-0.012059 0.000367 0
-0.012699 0.000322 0
-0.013248 0.000271 0
-0.013695 0.000214 0
-0.014027 0.000150 0
-0.014235 0.000082 0
-0.014312 0.000009 0
-0.014251 -0.000066 0
-0.014049 -0.000144 0
-0.013704 -0.000221 0
-0.013218 -0.000296 0
-0.012599 -0.000367 0
-0.011855 -0.000432 0
-0.010999 -0.000489 0
-0.010049 -0.000536 0
-0.009023 -0.000571 0
-0.007946 -0.000592 0
-0.006841 -0.000599 0
-0.005737 -0.000591 0
-0.004659 -0.000568 0
-0.003635 -0.000529 0
-0.002690 -0.000477 0
-0.001848 -0.000412 0
-0.001129 -0.000337 0
-0.000549 -0.000254 0
-0.000118 -0.000167 0
0.000161 -0.000080 0
0.000294 -0.000000 0
0.000299 0.000064 0
0.000209 0.000098 0
0.000081 0.000081 0
0.000000 -0.000000 0
0.000000 -0.000000 0
0.000022 -0.000079 0
-0.000077 0.000076 0
-0.000386 0.000335 0
-0.000938 0.000626 0
-0.001738 0.000906 0
-0.002769 0.001157 0
-0.004002 0.001369 0
-0.005405 0.001541 0
-0.006944 0.001674 0
-0.008585 0.001771 0
-0.010298 0.001834 0
-0.012053 0.001866 0
-0.013822 0.001870 0
-0.015580 0.001848 0
-0.017302 0.001800 0
-0.018964 0.001727 0
-0.020543 0.001629 0
-0.022014 0.001507 0
-0.023356 0.001361 0
-0.024546 0.001190 0
-0.025561 0.000995 0
-0.026380 0.000778 0
-0.026985 0.000541 0
-0.027358 0.000286 0
-0.027486 0.000016 0
-0.027358 -0.000264 0
-0.026968 -0.000548 0
-0.026316 -0.000830 0
-0.025407 -0.001105 0
-0.024253 -0.001364 0
-0.022871 -0.001600 0
-0.021285 -0.001806 0
-0.019527 -0.001976 0
-0.017631 -0.002103 0
-0.015639 -0.002182 0
-0.013596 -0.002209 0
-0.011548 -0.002183 0
-0.009545 -0.002102 0
-0.007634 -0.001969 0
-0.005860 -0.001787 0
-0.004265 -0.001561 0
-0.002883 -0.001299 0
-0.001744 -0.001011 0
-0.000863 -0.000710 0
-0.000245 -0.000412 0
0.000118 -0.000137 0
0.000258 0.000085 0
0.000225 0.000218 0
0.000100 0.000209 0
0.000000 -0.000000 0
0.000000 -0.000000 0
-0.000057 0.000018 0
-0.000348 0.000386 0
-0.000940 0.000917 0
-0.001860 0.001496 0
-0.003104 0.002057 0
-0.004649 0.002562 0
-0.006460 0.002994 0
-0.008496 0.003348 0
-0.010712 0.003623 0
-0.013065 0.003824 0
-0.015512 0.003955 0
-0.018014 0.004020 0
-0.020533 0.004025 0
-0.023031 0.003972 0
-0.025474 0.003864 0
-0.027827 0.003702 0
-0.030058 0.003486 0
-0.032134 0.003218 0
-0.034021 0.002898 0
-0.035689 0.002526 0
-0.037107 0.002106 0
-0.038248 0.001638 0
-0.039084 0.001129 0
-0.039594 0.000583 0
-0.039758 0.000009 0
-0.039565 -0.000584 0
-0.039007 -0.001185 0
-0.038085 -0.001781 0
-0.036807 -0.002359 0
-0.035188 -0.002903 0
-0.033254 -0.003400 0
-0.031039 -0.003833 0
-0.028582 -0.004190 0
-0.025934 -0.004458 0
-0.023150 -0.004628 0
-0.020290 -0.004690 0
-0.017417 -0.004642 0
-0.014597 -0.004482 0
-0.011893 -0.004215 0
-0.009368 -0.003846 0
-0.007076 -0.003389 0
-0.005065 -0.002858 0
-0.003373 -0.002275 0
-0.002022 -0.001665 0
-0.001020 -0.001062 0
-0.000357 -0.000504 0
0.000003 -0.000043 0
0.000117 0.000256 0
0.000074 0.000306 0
0.000000 -0.000000 0
0.000000 -0.000000 0
-0.000153 0.000269 0
-0.000670 0.000959 0
-0.001585 0.001848 0
-0.002906 0.002789 0
-0.004616 0.003695 0
-0.006682 0.004512 0
-0.009062 0.005215 0
-0.011707 0.005792 0
-0.014564 0.006243 0
-0.017582 0.006571 0
-0.020710 0.006784 0
-0.023899 0.006887 0
-0.027102 0.006887 0
-0.030274 0.006789 0
-0.033370 0.006596 0
-0.036348 0.006311 0
-0.039167 0.005935 0
-0.041784 0.005470 0
-0.044159 0.004916 0
-0.046255 0.004276 0
-0.048033 0.003554 0
-0.049459 0.002755 0
-0.050501 0.001887 0
-0.051133 0.000960 0
-0.051332 -0.000013 0
-0.051084 -0.001015 0
-0.050382 -0.002028 0
-0.049225 -0.003031 0
-0.047626 -0.004002 0
-0.045604 -0.004916 0
-0.043189 -0.005749 0
-0.040422 -0.006478 0
-0.037353 -0.007080 0
-0.034042 -0.007535 0
-0.030554 -0.007827 0
-0.026964 -0.007942 0
-0.023348 -0.007876 0
-0.019784 -0.007626 0
-0.016351 -0.007198 0
-0.013122 -0.006604 0
-0.010166 -0.005863 0
-0.007541 -0.005002 0
-0.005293 -0.004055 0
-0.003451 -0.003063 0
-0.002029 -0.002077 0
-0.001017 -0.001160 0
-0.000381 -0.000388 0
-0.000064 0.000146 0
0.000024 0.000325 0
0.000000 0.000000 0
0.000000 -0.000000 0
-0.000251 0.000688 0
-0.001008 0.001820 0
-0.002266 0.003154 0
-0.004005 0.004526 0
-0.006193 0.005832 0
-0.008785 0.007008 0
-0.011728 0.008019 0
-0.014965 0.008850 0
-0.018437 0.009499 0
-0.022086 0.009970 0
-0.025854 0.010272 0
-0.029684 0.010412 0
-0.033522 0.010399 0
-0.037316 0.010240 0
-0.041013 0.009938 0
-0.044565 0.009498 0
-0.047922 0.008921 0
-0.051035 0.008211 0
-0.053859 0.007369 0
-0.056347 0.006400 0
-0.058457 0.005309 0
-0.060148 0.004106 0
-0.061385 0.002802 0
-0.062137 0.001414 0
-0.062379 -0.000040 0
-0.062094 -0.001535 0
-0.061274 -0.003044 0
-0.059921 -0.004537 0
-0.058046 -0.005981 0
-0.055673 -0.007341 0
-0.052836 -0.008582 0
-0.049582 -0.009669 0
-0.045966 -0.010570 0
-0.042058 -0.011257 0
-0.037932 -0.011705 0
-0.033672 -0.011897 0
-0.029367 -0.011822 0
-0.025105 -0.011480 0
-0.020978 -0.010877 0
-0.017072 -0.010031 0
-0.013465 -0.008970 0
-0.010226 -0.007731 0
-0.007411 -0.006365 0
-0.005058 -0.004929 0
-0.003184 -0.003496 0
-0.001787 -0.002151 0
-0.000837 -0.000996 0
-0.000281 -0.000149 0
-0.000037 0.000242 0
0.000000 0.000000 0
0.000000 0.000000 0
-0.000348 0.001278 0
-0.001346 0.002975 0
-0.002951 0.004845 0
-0.005115 0.006716 0
-0.007785 0.008474 0
-0.010900 0.010046 0
-0.014399 0.011395 0
-0.018214 0.012502 0
-0.022282 0.013365 0
-0.026535 0.013988 0
-0.030911 0.014381 0
-0.035346 0.014555 0
-0.039782 0.014518 0
-0.044158 0.014280 0
-0.048419 0.013845 0
-0.052506 0.013219 0
-0.056367 0.012406 0
-0.059945 0.011407 0
-0.063190 0.010228 0
-0.066050 0.008874 0
-0.068478 0.007355 0
-0.070428 0.005683 0
-0.071860 0.003875 0
-0.072741 0.001953 0
-0.073042 -0.000055 0
-0.072746 -0.002119 0
-0.071841 -0.004201 0
-0.070330 -0.006259 0
-0.068224 -0.008249 0
-0.065549 -0.010126 0
-0.062342 -0.011841 0
-0.058652 -0.013348 0
-0.054542 -0.014604 0
-0.050086 -0.015569 0
-0.045367 -0.016212 0
-0.040477 -0.016508 0
-0.035515 -0.016443 0
-0.030581 -0.016014 0
-0.025776 -0.015231 0
-0.021198 -0.014117 0
-0.016938 -0.012709 0
-0.013075 -0.011056 0
-0.009675 -0.009223 0
-0.006786 -0.007290 0
-0.004433 -0.005348 0
-0.002622 -0.003508 0
-0.001331 -0.001894 0
-0.000515 -0.000653 0
-0.000102 0.000045 0
0.000000 0.000000 0
0.000000 0.000000 0
-0.000441 0.002035 0
-0.001676 0.004423 0
-0.003624 0.006922 0
-0.006210 0.009359 0
-0.009358 0.011617 0
-0.012991 0.013622 0
-0.017035 0.015333 0
-0.021416 0.016733 0
-0.026060 0.017820 0
-0.030895 0.018599 0
-0.035854 0.019083 0
-0.040867 0.019283 0
-0.045870 0.019211 0
-0.050800 0.018876 0
-0.055594 0.018286 0
-0.060191 0.017446 0
-0.064532 0.016361 0
-0.068556 0.015035 0
-0.072208 0.013474 0
-0.075432 0.011687 0
-0.078174 0.009687 0
-0.080388 0.007488 0
-0.082027 0.005115 0
-0.083056 0.002596 0
-0.083442 -0.000035 0
-0.083166 -0.002736 0
-0.082214 -0.005460 0
-0.080586 -0.008154 0
-0.078295 -0.010762 0
-0.075364 -0.013223 0
-0.071833 -0.015479 0
-0.067753 -0.017469 0
-0.063191 -0.019136 0
-0.058225 -0.020432 0
-0.052944 -0.021314 0
-0.047449 -0.021749 0
-0.041847 -0.021719 0
-0.036248 -0.021219 0
-0.030765 -0.020259 0
-0.025508 -0.018869 0
-0.020580 -0.017093 0
-0.016072 -0.014994 0
-0.012062 -0.012654 0
-0.008609 -0.010171 0
-0.005751 -0.007660 0
-0.003501 -0.005253 0
-0.001848 -0.003103 0
-0.000756 -0.001379 0
-0.000166 -0.000273 0
0.000000 0.000000 0
0.000000 0.000000 0
-0.000530 0.002954 0
-0.001994 0.006157 0
-0.004277 0.009378 0
-0.007275 0.012449 0
-0.010890 0.015254 0
-0.015031 0.017724 0
-0.019609 0.019820 0
-0.024539 0.021527 0
-0.029742 0.022844 0
-0.035140 0.023782 0
-0.040659 0.024353 0
-0.046227 0.024571 0
-0.051775 0.024451 0
-0.057236 0.024004 0
-0.062543 0.023237 0
-0.067631 0.022157 0
-0.072437 0.020771 0
-0.076898 0.019083 0
-0.080952 0.017103 0
-0.084540 0.014840 0
-0.087606 0.012311 0
-0.090097 0.009536 0
-0.091965 0.006543 0
-0.093169 0.003368 0
-0.093674 0.000054 0
-0.093456 -0.003348 0
-0.092499 -0.006780 0
-0.090801 -0.010178 0
-0.088370 -0.013472 0
-0.085231 -0.016588 0
-0.081421 -0.019452 0
-0.076993 -0.021990 0
-0.072014 -0.024133 0
-0.066568 -0.025816 0
-0.060748 -0.026988 0
-0.054661 -0.027606 0
-0.048424 -0.027644 0
-0.042157 -0.027095 0
-0.035985 -0.025971 0
-0.030029 -0.024302 0
-0.024407 -0.022145 0
-0.019225 -0.019574 0
-0.014573 -0.016686 0
-0.010524 -0.013601 0
-0.007129 -0.010457 0
-0.004414 -0.007411 0
-0.002380 -0.004638 0
-0.001002 -0.002335 0
-0.000231 -0.000711 0
0.000000 0.000000 0
0.000000 0.000000 0
-0.000615 0.004028 0
-0.002297 0.008169 0
-0.004902 0.012203 0
-0.008299 0.015973 0
-0.012369 0.019373 0
-0.017001 0.022341 0
-0.022097 0.024842 0
-0.027560 0.026867 0
-0.033304 0.028421 0
-0.039245 0.029516 0
-0.045305 0.030170 0
-0.051408 0.030399 0
-0.057482 0.030220 0
-0.063456 0.029644 0
-0.069261 0.028682 0
-0.074829 0.027340 0
-0.080093 0.025627 0
-0.084987 0.023550 0
-0.089447 0.021116 0
-0.093409 0.018341 0
-0.096814 0.015243 0
-0.099605 0.011847 0
-0.101730 0.008187 0
-0.103144 0.004305 0
-0.103808 0.000252 0
-0.103693 -0.003911 0
-0.102779 -0.008115 0
-0.101060 -0.012283 0
-0.098541 -0.016331 0
-0.095242 -0.020173 0
-0.091199 -0.023717 0
-0.086463 -0.026875 0
-0.081103 -0.029562 0
-0.075202 -0.031699 0
-0.068860 -0.033220 0
-0.062190 -0.034073 0
-0.055315 -0.034223 0
-0.048367 -0.033658 0
-0.041484 -0.032387 0
-0.034802 -0.030446 0
-0.028452 -0.027897 0
-0.022556 -0.024829 0
-0.017223 -0.021355 0
-0.012541 -0.017614 0
-0.008576 -0.013769 0
-0.005368 -0.010002 0
-0.002931 -0.006516 0
-0.001253 -0.003528 0
-0.000295 -0.001274 0
0.000000 0.000000 0
0.000000 0.000000 0
-0.000695 0.005250 0
-0.002585 0.010444 0
-0.005498 0.015380 0
-0.009277 0.019915 0
-0.013782 0.023957 0
-0.018889 0.027453 0
-0.024483 0.030379 0
-0.030460 0.032734 0
-0.036725 0.034529 0
-0.043189 0.035782 0
-0.049770 0.036515 0
-0.056390 0.036748 0
-0.062973 0.036499 0
-0.069446 0.035783 0
-0.075737 0.034610 0
-0.081778 0.032989 0
-0.087497 0.030929 0
-0.092828 0.028437 0
-0.097702 0.025525 0
-0.102053 0.022207 0
-0.105818 0.018506 0
-0.108938 0.014452 0
-0.111355 0.010082 0
-0.113020 0.005446 0
-0.113890 0.000604 0
-0.113929 -0.004376 0
-0.113112 -0.009413 0
-0.111428 -0.014416 0
-0.108875 -0.019290 0
-0.105469 -0.023930 0
-0.101242 -0.028231 0
-0.096241 -0.032086 0
-0.090534 -0.035394 0
-0.084206 -0.038059 0
-0.077357 -0.040000 0
-0.070107 -0.041151 0
-0.062588 -0.041467 0
-0.054943 -0.040926 0
-0.047322 -0.039536 0
-0.039876 -0.037335 0
-0.032757 -0.034390 0
-0.026103 -0.030802 0
-0.020042 -0.026702 0
-0.014682 -0.022249 0
-0.010106 -0.017630 0
-0.006371 -0.013055 0
-0.003507 -0.008753 0
-0.001513 -0.004970 0
-0.000361 -0.001964 0
0.000000 0.000000 0
0.000000 -0.000000 0
-0.000770 0.006612 0
-0.002857 0.012971 0
-0.006060 0.018894 0
-0.010202 0.024258 0
-0.015123 0.028986 0
-0.020681 0.033041 0
-0.026751 0.036412 0
-0.033219 0.039109 0
-0.039983 0.041150 0
-0.046950 0.042562 0
-0.054033 0.043371 0
-0.061151 0.043602 0
-0.068226 0.043275 0
-0.075185 0.042409 0
-0.081954 0.041014 0
-0.088462 0.039100 0
-0.094637 0.036677 0
-0.100410 0.033754 0
-0.105710 0.030342 0
-0.110469 0.026458 0
-0.114622 0.022128 0
-0.118103 0.017384 0
-0.120852 0.012270 0
-0.122814 0.006839 0
-0.123940 0.001160 0
-0.124189 -0.004689 0
-0.123529 -0.010616 0
-0.121939 -0.016521 0
-0.119413 -0.022290 0
-0.115958 -0.027806 0
-0.111600 -0.032945 0
-0.106383 -0.037582 0
-0.100368 -0.041597 0
-0.093641 -0.044876 0
-0.086304 -0.047318 0
-0.078481 -0.048842 0
-0.070311 -0.049388 0
-0.061948 -0.048924 0
-0.053558 -0.047453 0
-0.045310 -0.045011 0
-0.037373 -0.041671 0
-0.029909 -0.037543 0
-0.023067 -0.032776 0
-0.016977 -0.027551 0
-0.011742 -0.022080 0
-0.007441 -0.016601 0
-0.004118 -0.011374 0
-0.001787 -0.006675 0
-0.000429 -0.002787 0
0.000000 -0.000000 0
0.000000 -0.000000 0
-0.000840 0.008106 0
-0.003111 0.015735 0
-0.006587 0.022726 0
-0.011070 0.028978 0
-0.016382 0.034436 0
-0.022367 0.039081 0
-0.028887 0.042917 0
-0.035821 0.045966 0
-0.043060 0.048260 0
-0.050505 0.049832 0
-0.058068 0.050716 0
-0.065665 0.050942 0
-0.073217 0.050534 0
-0.080648 0.049511 0
-0.087885 0.047887 0
-0.094856 0.045672 0
-0.101488 0.042877 0
-0.107709 0.039510 0
-0.113450 0.035584 0
-0.118638 0.031119 0
-0.123205 0.026140 0
-0.127083 0.020682 0
-0.130206 0.014794 0
-0.132515 0.008535 0
-0.133953 0.001978 0
-0.134471 -0.004788 0
-0.134030 -0.011663 0
-0.132601 -0.018532 0
-0.130168 -0.025271 0
-0.126729 -0.031742 0
-0.122302 -0.037806 0
-0.116921 -0.043318 0
-0.110646 -0.048135 0
-0.103556 -0.052123 0
-0.095754 -0.055161 0
-0.087367 -0.057145 0
-0.078542 -0.057999 0
-0.069444 -0.057679 0
-0.060254 -0.056175 0
-0.051161 -0.053520 0
-0.042355 -0.049791 0
-0.034023 -0.045108 0
-0.026340 -0.039634 0
-0.019460 -0.033574 0
-0.013513 -0.027166 0
-0.008597 -0.020679 0
-0.004777 -0.014408 0
-0.002081 -0.008659 0
-0.000503 -0.003751 0
0.000000 -0.000000 0
0.000000 -0.000000 0
-0.000905 0.009723 0
-0.003346 0.018719 0
-0.007076 0.026854 0
-0.011876 0.034053 0
-0.017552 0.040283 0
-0.023935 0.045546 0
-0.030877 0.049866 0
-0.038249 0.053281 0
-0.045934 0.055834 0
-0.053833 0.057570 0
-0.061851 0.058530 0
-0.069905 0.058750 0
-0.077914 0.058259 0
-0.085803 0.057077 0
-0.093497 0.055221 0
-0.100924 0.052703 0
-0.108012 0.049531 0
-0.114689 0.045716 0
-0.120883 0.041270 0
-0.126520 0.036213 0
-0.131529 0.030573 0
-0.135838 0.024385 0
-0.139379 0.017702 0
-0.142084 0.010586 0
-0.143890 0.003117 0
-0.144742 -0.004611 0
-0.144588 -0.012486 0
-0.143391 -0.020383 0
-0.141123 -0.028162 0
-0.137771 -0.035672 0
-0.133342 -0.042753 0
-0.127863 -0.049238 0
-0.121382 -0.054963 0
-0.113974 -0.059768 0
-0.105739 -0.063507 0
-0.096807 -0.066054 0
-0.087330 -0.067310 0
-0.077484 -0.067212 0
-0.067467 -0.065737 0
-0.057486 -0.062910 0
-0.047758 -0.058808 0
-0.038497 -0.053558 0
-0.029906 -0.047339 0
-0.022170 -0.040378 0
-0.015446 -0.032943 0
-0.009860 -0.025337 0
-0.005497 -0.017890 0
-0.002403 -0.010949 0
-0.000582 -0.004868 0
0.000000 -0.000000 0
0.000000 0.000000 0
-0.000964 0.011452 0
-0.003561 0.021906 0
-0.007523 0.031256 0
-0.012613 0.039454 0
-0.018624 0.046496 0
-0.025375 0.052406 0
-0.032707 0.057230 0
-0.040484 0.061023 0
-0.048586 0.063844 0
-0.056907 0.065749 0
-0.065353 0.066788 0
-0.073838 0.067005 0
-0.082283 0.066432 0
-0.090610 0.065094 0
-0.098748 0.063008 0
-0.106623 0.060188 0
-0.114163 0.056642 0
-0.121298 0.052380 0
-0.127953 0.047415 0
-0.134056 0.041765 0
-0.139532 0.035458 0
-0.144306 0.028532 0
-0.148305 0.021039 0
-0.151456 0.013046 0
-0.153688 0.004636 0
-0.154936 -0.004090 0
-0.155140 -0.013014 0
-0.154249 -0.021998 0
-0.152224 -0.030890 0
-0.149039 -0.039522 0
-0.144687 -0.047714 0
-0.139181 -0.055278 0
-0.132561 -0.062024 0
-0.124892 -0.067766 0
-0.116271 -0.072327 0
-0.106823 -0.075555 0
-0.096707 -0.077322 0
-0.086109 -0.077542 0
-0.075242 -0.076173 0
-0.064335 -0.073229 0
-0.053633 -0.068780 0
-0.043378 -0.062960 0
-0.033809 -0.055961 0
-0.025144 -0.048033 0
-0.017573 -0.039475 0
-0.011252 -0.030629 0
-0.006292 -0.021865 0
-0.002759 -0.013574 0
-0.000671 -0.006154 0
0.000000 -0.000000 0
0.000000 0.000000 0
-0.001017 0.013284 0
-0.003754 0.025277 0
-0.007924 0.035907 0
-0.013277 0.045154 0
-0.019591 0.053044 0
-0.026674 0.059628 0
-0.034361 0.064975 0
-0.042508 0.069160 0
-0.050991 0.072257 0
-0.059702 0.074338 0
-0.068544 0.075462 0
-0.077432 0.075680 0
-0.086284 0.075030 0
-0.095027 0.073542 0
-0.103588 0.071234 0
-0.111897 0.068119 0
-0.119881 0.064206 0
-0.127471 0.059506 0
-0.134592 0.054028 0
-0.141172 0.047792 0
-0.147134 0.040823 0
-0.152401 0.033158 0
-0.156894 0.024851 0
-0.160536 0.015968 0
-0.163248 0.006597 0
-0.164955 -0.003159 0
-0.165587 -0.013172 0
-0.165080 -0.023299 0
-0.163381 -0.033373 0
-0.160448 -0.043210 0
-0.156260 -0.052610 0
-0.150814 -0.061363 0
-0.144135 -0.069252 0
-0.136277 -0.076058 0
-0.127328 -0.081577 0
-0.117410 -0.085618 0
-0.106683 -0.088024 0
-0.095342 -0.088677 0
-0.083613 -0.087511 0
-0.071751 -0.084519 0
-0.060025 -0.079765 0
-0.048714 -0.073382 0
-0.038094 -0.065574 0
-0.028421 -0.056614 0
-0.019925 -0.046835 0
-0.012796 -0.036619 0
-0.007176 -0.026383 0
-0.003156 -0.016570 0
-0.000771 -0.007627 0
0.000000 -0.000000 0
0.000000 0.000000 0
-0.001064 0.015206 0
-0.003923 0.028813 0
-0.008277 0.040779 0
-0.013861 0.051121 0
-0.020443 0.059893 0
-0.027821 0.067176 0
-0.035824 0.073064 0
-0.044302 0.077653 0
-0.053127 0.081038 0
-0.062190 0.083302 0
-0.071392 0.084518 0
-0.080646 0.084745 0
-0.089875 0.084027 0
-0.099005 0.082398 0
-0.107964 0.079877 0
-0.116684 0.076480 0
-0.125096 0.072216 0
-0.133130 0.067091 0
-0.140714 0.061116 0
-0.147774 0.054307 0
-0.154234 0.046687 0
-0.160013 0.038293 0
-0.165031 0.029174 0
-0.169202 0.019400 0
-0.172443 0.009056 0
-0.174669 -0.001750 0
-0.175798 -0.012888 0
-0.175752 -0.024205 0
-0.174464 -0.035523 0
-0.171875 -0.046644 0
-0.167946 -0.057349 0
-0.162656 -0.067403 0
-0.156013 -0.076561 0
-0.148054 -0.084573 0
-0.138856 -0.091194 0
-0.128532 -0.096199 0
-0.117241 -0.099390 0
-0.105182 -0.100611 0
-0.092596 -0.099764 0
-0.079758 -0.096818 0
-0.066969 -0.091817 0
-0.054544 -0.084891 0
-0.042799 -0.076255 0
-0.032037 -0.066202 0
-0.022531 -0.055101 0
-0.014514 -0.043378 0
-0.008164 -0.031505 0
-0.003602 -0.019979 0
-0.000883 -0.009310 0
0.000000 -0.000000 0
0.000000 0.000000 0
-0.001103 0.017207 0
-0.004067 0.032490 0
-0.008577 0.045844 0
-0.014359 0.057320 0
-0.021171 0.067004 0
-0.028805 0.075010 0
-0.037081 0.081456 0
-0.045847 0.086463 0
-0.054972 0.090145 0
-0.064343 0.092602 0
-0.073862 0.093919 0
-0.083444 0.094164 0
-0.093011 0.093389 0
-0.102490 0.091630 0
-0.111814 0.088913 0
-0.120916 0.085251 0
-0.129731 0.080652 0
-0.138189 0.075124 0
-0.146221 0.068673 0
-0.153754 0.061312 0
-0.160712 0.053062 0
-0.167013 0.043955 0
-0.172574 0.034040 0
-0.177305 0.023381 0
-0.181115 0.012064 0
-0.183912 0.000196 0
-0.185601 -0.012089 0
-0.186093 -0.024633 0
-0.185302 -0.037250 0
-0.183153 -0.049728 0
-0.179586 -0.061829 0
-0.174560 -0.073296 0
-0.168062 -0.083853 0
-0.160109 -0.093215 0
-0.150760 -0.101099 0
-0.140117 -0.107233 0
-0.128331 -0.111374 0
-0.115603 -0.113321 0
-0.102183 -0.112935 0
-0.088367 -0.110147 0
-0.074486 -0.104980 0
-0.060895 -0.097552 0
-0.047957 -0.088081 0
-0.036023 -0.076882 0
-0.025420 -0.064358 0
-0.016428 -0.050985 0
-0.009271 -0.037295 0
-0.004104 -0.023851 0
-0.001011 -0.011229 0
0.000000 -0.000000 0
0.000000 0.000000 0
-0.001135 0.019273 0
-0.004183 0.036286 0
-0.008822 0.051071 0
-0.014767 0.063714 0
-0.021769 0.074339 0
-0.029615 0.083086 0
-0.038119 0.090106 0
-0.047126 0.095544 0
-0.056502 0.099533 0
-0.066134 0.102192 0
-0.075923 0.103619 0
-0.085785 0.103893 0
-0.095643 0.103073 0
-0.105428 0.101201 0