# vtk DataFile Version 2.0
generated by CFD-lab course output (written by Tobias Neckel) 
ASCII

DATASET STRUCTURED_GRID
DIMENSIONS  51 51 1 
POINTS 2601 float

0.000000 0.000000 0
0.020000 0.000000 0
0.040000 0.000000 0
0.060000 0.000000 0
0.080000 0.000000 0
0.100000 0.000000 0
0.120000 0.000000 0
0.140000 0.000000 0
0.160000 0.000000 0
0.180000 0.000000 0
0.200000 0.000000 0
0.220000 0.000000 0
0.240000 0.000000 0
0.260000 0.000000 0
0.280000 0.000000 0
0.300000 0.000000 0
0.320000 0.000000 0
0.340000 0.000000 0
0.360000 0.000000 0
0.380000 0.000000 0
0.400000 0.000000 0
0.420000 0.000000 0
0.440000 0.000000 0
0.460000 0.000000 0
0.480000 0.000000 0
0.500000 0.000000 0
0.520000 0.000000 0
0.540000 0.000000 0
0.560000 0.000000 0
0.580000 0.000000 0
0.600000 0.000000 0
0.620000 0.000000 0
0.640000 0.000000 0
0.660000 0.000000 0
0.680000 0.000000 0
0.700000 0.000000 0
0.720000 0.000000 0
0.740000 0.000000 0
0.760000 0.000000 0
0.780000 0.000000 0
0.800000 0.000000 0
0.820000 0.000000 0
0.840000 0.000000 0
0.860000 0.000000 0
0.880000 0.000000 0
0.900000 0.000000 0
0.920000 0.000000 0
0.940000 0.000000 0
0.960000 0.000000 0
0.980000 0.000000 0
1.000000 0.000000 0
0.000000 0.020000 0
0.020000 0.020000 0
0.040000 0.020000 0
0.060000 0.020000 0
0.080000 0.020000 0
0.100000 0.020000 0
0.120000 0.020000 0
0.140000 0.020000 0
0.160000 0.020000 0
0.180000 0.020000 0
0.200000 0.020000 0
0.220000 0.020000 0
0.240000 0.020000 0
0.260000 0.020000 0
0.280000 0.020000 0
0.300000 0.020000 0
0.320000 0.020000 0
0.340000 0.020000 0
0.360000 0.020000 0
0.380000 0.020000 0
0.400000 0.020000 0
0.420000 0.020000 0
0.440000 0.020000 0
0.460000 0.020000 0
0.480000 0.020000 0
0.500000 0.020000 0
0.520000 0.020000 0
0.540000 0.020000 0
0.560000 0.020000 0
0.580000 0.020000 0
0.600000 0.020000 0
0.620000 0.020000 0
0.640000 0.020000 0
0.660000 0.020000 0
0.680000 0.020000 0
0.700000 0.020000 0
0.720000 0.020000 0
0.740000 0.020000 0
0.760000 0.020000 0
0.780000 0.020000 0
0.800000 0.020000 0
0.820000 0.020000 0
0.840000 0.020000 0
0.860000 0.020000 0
0.880000 0.020000 0
0.900000 0.020000 0
0.920000 0.020000 0
0.940000 0.020000 0
0.960000 0.020000 0
0.980000 0.020000 0
1.000000 0.020000 0
0.000000 0.040000 0
0.020000 0.040000 0
0.040000 0.040000 0
0.060000 0.040000 0
0.080000 0.040000 0
0.100000 0.040000 0
0.120000 0.040000 0
0.140000 0.040000 0
0.160000 0.040000 0
0.180000 0.040000 0
0.200000 0.040000 0
0.220000 0.040000 0
0.240000 0.040000 0
0.260000 0.040000 0
0.280000 0.040000 0
0.300000 0.040000 0
0.320000 0.040000 0
0.340000 0.040000 0
0.360000 0.040000 0
0.380000 0.040000 0
0.400000 0.040000 0
0.420000 0.040000 0
0.440000 0.040000 0
0.460000 0.040000 0
0.480000 0.040000 0
0.500000 0.040000 0
0.520000 0.040000 0
0.540000 0.040000 0
0.560000 0.040000 0
0.580000 0.040000 0
0.600000 0.040000 0
0.620000 0.040000 0
0.640000 0.040000 0
0.660000 0.040000 0
0.680000 0.040000 0
0.700000 0.040000 0
0.720000 0.040000 0
0.740000 0.040000 0
0.760000 0.040000 0
0.780000 0.040000 0
0.800000 0.040000 0
0.820000 0.040000 0
0.840000 0.040000 0
0.860000 0.040000 0
0.880000 0.040000 0
0.900000 0.040000 0
0.920000 0.040000 0
0.940000 0.040000 0
0.960000 0.040000 0
0.980000 0.040000 0
1.000000 0.040000 0
0.000000 0.060000 0
0.020000 0.060000 0
0.040000 0.060000 0
0.060000 0.060000 0
0.080000 0.060000 0
0.100000 0.060000 0
0.120000 0.060000 0
0.140000 0.060000 0
0.160000 0.060000 0
0.180000 0.060000 0
0.200000 0.060000 0
0.220000 0.060000 0
0.240000 0.060000 0
0.260000 0.060000 0
0.280000 0.060000 0
0.300000 0.060000 0
0.320000 0.060000 0
0.340000 0.060000 0
0.360000 0.060000 0
0.380000 0.060000 0
0.400000 0.060000 0
0.420000 0.060000 0
0.440000 0.060000 0
0.460000 0.060000 0
0.480000 0.060000 0
0.500000 0.060000 0
0.520000 0.060000 0
0.540000 0.060000 0
0.560000 0.060000 0
0.580000 0.060000 0
0.600000 0.060000 0
0.620000 0.060000 0
0.640000 0.060000 0
0.660000 0.060000 0
0.680000 0.060000 0
0.700000 0.060000 0
0.720000 0.060000 0
0.740000 0.060000 0
0.760000 0.060000 0
0.780000 0.060000 0
0.800000 0.060000 0
0.820000 0.060000 0
0.840000 0.060000 0
0.860000 0.060000 0
0.880000 0.060000 0
0.900000 0.060000 0
0.920000 0.060000 0
0.940000 0.060000 0
0.960000 0.060000 0
0.980000 0.060000 0
1.000000 0.060000 0
0.000000 0.080000 0
0.020000 0.080000 0
0.040000 0.080000 0
0.060000 0.080000 0
0.080000 0.080000 0
0.100000 0.080000 0
0.120000 0.080000 0
0.140000 0.080000 0
0.160000 0.080000 0
0.180000 0.080000 0
0.200000 0.080000 0
0.220000 0.080000 0
0.240000 0.080000 0
0.260000 0.080000 0
0.280000 0.080000 0
0.300000 0.080000 0
0.320000 0.080000 0
0.340000 0.080000 0
0.360000 0.080000 0
0.380000 0.080000 0
0.400000 0.080000 0
0.420000 0.080000 0
0.440000 0.080000 0
0.460000 0.080000 0
0.480000 0.080000 0
0.500000 0.080000 0
0.520000 0.080000 0
0.540000 0.080000 0
0.560000 0.080000 0
0.580000 0.080000 0
0.600000 0.080000 0
0.620000 0.080000 0
0.640000 0.080000 0
0.660000 0.080000 0
0.680000 0.080000 0
0.700000 0.080000 0
0.720000 0.080000 0
0.740000 0.080000 0
0.760000 0.080000 0
0.780000 0.080000 0
0.800000 0.080000 0
0.820000 0.080000 0
0.840000 0.080000 0
0.860000 0.080000 0
0.880000 0.080000 0
0.900000 0.080000 0
0.920000 0.080000 0
0.940000 0.080000 0
0.960000 0.080000 0
0.980000 0.080000 0
1.000000 0.080000 0
0.000000 0.100000 0
0.020000 0.100000 0
0.040000 0.100000 0
0.060000 0.100000 0
0.080000 0.100000 0
0.100000 0.100000 0
0.120000 0.100000 0
0.140000 0.100000 0
0.160000 0.100000 0
0.180000 0.100000 0
0.200000 0.100000 0
0.220000 0.100000 0
0.240000 0.100000 0
0.260000 0.100000 0
0.280000 0.100000 0
0.300000 0.100000 0
0.320000 0.100000 0
0.340000 0.100000 0
0.360000 0.100000 0
0.380000 0.100000 0
0.400000 0.100000 0
0.420000 0.100000 0
0.440000 0.100000 0
0.460000 0.100000 0
0.480000 0.100000 0
0.500000 0.100000 0
0.520000 0.100000 0
0.540000 0.100000 0
0.560000 0.100000 0
0.580000 0.100000 0
0.600000 0.100000 0
0.620000 0.100000 0
0.640000 0.100000 0
0.660000 0.100000 0
0.680000 0.100000 0
0.700000 0.100000 0
0.720000 0.100000 0
0.740000 0.100000 0
0.760000 0.100000 0
0.780000 0.100000 0
0.800000 0.100000 0
0.820000 0.100000 0
0.840000 0.100000 0
0.860000 0.100000 0
0.880000 0.100000 0
0.900000 0.100000 0
0.920000 0.100000 0
0.940000 0.100000 0
0.960000 0.100000 0
0.980000 0.100000 0
1.000000 0.100000 0
0.000000 0.120000 0
0.020000 0.120000 0
0.040000 0.120000 0
0.060000 0.120000 0
0.080000 0.120000 0
0.100000 0.120000 0
0.120000 0.120000 0
0.140000 0.120000 0
0.160000 0.120000 0
0.180000 0.120000 0
0.200000 0.120000 0
0.220000 0.120000 0
0.240000 0.120000 0
0.260000 0.120000 0
0.280000 0.120000 0
0.300000 0.120000 0
0.320000 0.120000 0
0.340000 0.120000 0
0.360000 0.120000 0
0.380000 0.120000 0
0.400000 0.120000 0
0.420000 0.120000 0
0.440000 0.120000 0
0.460000 0.120000 0
0.480000 0.120000 0
0.500000 0.120000 0
0.520000 0.120000 0
0.540000 0.120000 0
0.560000 0.120000 0
0.580000 0.120000 0
0.600000 0.120000 0
0.620000 0.120000 0
0.640000 0.120000 0
0.660000 0.120000 0
0.680000 0.120000 0
0.700000 0.120000 0
0.720000 0.120000 0
0.740000 0.120000 0
0.760000 0.120000 0
0.780000 0.120000 0
0.800000 0.120000 0
0.820000 0.120000 0
0.840000 0.120000 0
0.860000 0.120000 0
0.880000 0.120000 0
0.900000 0.120000 0
0.920000 0.120000 0
0.940000 0.120000 0
0.960000 0.120000 0
0.980000 0.120000 0
1.000000 0.120000 0
0.000000 0.140000 0
0.020000 0.140000 0
0.040000 0.140000 0
0.060000 0.140000 0
0.080000 0.140000 0
0.100000 0.140000 0
0.120000 0.140000 0
0.140000 0.140000 0
0.160000 0.140000 0
0.180000 0.140000 0
0.200000 0.140000 0
0.220000 0.140000 0
0.240000 0.140000 0
0.260000 0.140000 0
0.280000 0.140000 0
0.300000 0.140000 0
0.320000 0.140000 0
0.340000 0.140000 0
0.360000 0.140000 0
0.380000 0.140000 0
0.400000 0.140000 0
0.420000 0.140000 0
0.440000 0.140000 0
0.460000 0.140000 0
0.480000 0.140000 0
0.500000 0.140000 0
0.520000 0.140000 0
0.540000 0.140000 0
0.560000 0.140000 0
0.580000 0.140000 0
0.600000 0.140000 0
0.620000 0.140000 0
0.640000 0.140000 0
0.660000 0.140000 0
0.680000 0.140000 0
0.700000 0.140000 0
0.720000 0.140000 0
0.740000 0.140000 0
0.760000 0.140000 0
0.780000 0.140000 0
0.800000 0.140000 0
0.820000 0.140000 0
0.840000 0.140000 0
0.860000 0.140000 0
0.880000 0.140000 0
0.900000 0.140000 0
0.920000 0.140000 0
0.940000 0.140000 0
0.960000 0.140000 0
0.980000 0.140000 0
1.000000 0.140000 0
0.000000 0.160000 0
0.020000 0.160000 0
0.040000 0.160000 0
0.060000 0.160000 0
0.080000 0.160000 0
0.100000 0.160000 0
0.120000 0.160000 0
0.140000 0.160000 0
0.160000 0.160000 0
0.180000 0.160000 0
0.200000 0.160000 0
0.220000 0.160000 0
0.240000 0.160000 0
0.260000 0.160000 0
0.280000 0.160000 0
0.300000 0.160000 0
0.320000 0.160000 0
0.340000 0.160000 0
0.360000 0.160000 0
0.380000 0.160000 0
0.400000 0.160000 0
0.420000 0.160000 0
0.440000 0.160000 0
0.460000 0.160000 0
0.480000 0.160000 0
0.500000 0.160000 0
0.520000 0.160000 0
0.540000 0.160000 0
0.560000 0.160000 0
0.580000 0.160000 0
0.600000 0.160000 0
0.620000 0.160000 0
0.640000 0.160000 0
0.660000 0.160000 0
0.680000 0.160000 0
0.700000 0.160000 0
0.720000 0.160000 0
0.740000 0.160000 0
0.760000 0.160000 0
0.780000 0.160000 0
0.800000 0.160000 0
0.820000 0.160000 0
0.840000 0.160000 0
0.860000 0.160000 0
0.880000 0.160000 0
0.900000 0.160000 0
0.920000 0.160000 0
0.940000 0.160000 0
0.960000 0.160000 0
0.980000 0.160000 0
1.000000 0.160000 0
0.000000 0.180000 0
0.020000 0.180000 0
0.040000 0.180000 0
0.060000 0.180000 0
0.080000 0.180000 0
0.100000 0.180000 0
0.120000 0.180000 0
0.140000 0.180000 0
0.160000 0.180000 0
0.180000 0.180000 0
0.200000 0.180000 0
0.220000 0.180000 0
0.240000 0.180000 0
0.260000 0.180000 0
0.280000 0.180000 0
0.300000 0.180000 0
0.320000 0.180000 0
0.340000 0.180000 0
0.360000 0.180000 0
0.380000 0.180000 0
0.400000 0.180000 0
0.420000 0.180000 0
0.440000 0.180000 0
0.460000 0.180000 0
0.480000 0.180000 0
0.500000 0.180000 0
0.520000 0.180000 0
0.540000 0.180000 0
0.560000 0.180000 0
0.580000 0.180000 0
0.600000 0.180000 0
0.620000 0.180000 0
[...]
POINT_DATA 2601 

VECTORS velocity float
0.000000 0.000000 0
-0.000000 0.000000 0
-0.000000 0.000000 0
-0.000000 0.000000 0
0.000000 0.000000 0
0.000000 0.000000 0
0.000000 0.000000 0
0.000000 0.000000 0
-0.000000 0.000000 0
-0.000000 0.000000 0
-0.000000 0.000000 0
-0.000000 0.000000 0
-0.000000 0.000000 0
0.000000 0.000000 0
0.000000 0.000000 0
0.000000 0.000000 0
0.000000 0.000000 0
0.000000 0.000000 0
-0.000000 0.000000 0
-0.000000 0.000000 0
-0.000000 0.000000 0
-0.000000 0.000000 0
-0.000000 0.000000 0
-0.000000 0.000000 0
-0.000000 0.000000 0
-0.000000 0.000000 0
-0.000000 0.000000 0
-0.000000 0.000000 0
-0.000000 0.000000 0
-0.000000 0.000000 0
-0.000000 0.000000 0
-0.000000 0.000000 0
-0.000000 0.000000 0
-0.000000 0.000000 0
-0.000000 0.000000 0
-0.000000 0.000000 0
-0.000000 0.000000 0
-0.000000 0.000000 0
-0.000000 0.000000 0
0.000000 0.000000 0
0.000000 0.000000 0
0.000000 0.000000 0
0.000000 0.000000 0
0.000000 0.000000 0
0.000000 0.000000 0
0.000000 0.000000 0
0.000000 0.000000 0
0.000000 0.000000 0
0.000000 0.000000 0
-0.000000 0.000000 0
0.000000 0.000000 0
0.000000 -0.000000 0
0.000059 -0.000060 0
0.000080 -0.000023 0
-0.000015 0.000055 0
-0.000256 0.000144 0
-0.000644 0.000228 0
-0.001168 0.000301 0
-0.001809 0.000362 0
-0.002548 0.000410 0
-0.003364 0.000447 0
-0.004237 0.000473 0
-0.005150 0.000491 0
-0.006087 0.000500 0
-0.007033 0.000502 0
-0.007974 0.000496 0
-0.008897 0.000484 0
-0.009789 0.000465 0
-0.010639 0.000440 0
-0.011433 0.000408 0
-0.012159 0.000370 0
-0.012805 0.000325 0
-0.013359 0.000273 0
-0.013808 0.000215 0
-0.014143 0.000151 0
-0.014352 0.000082 0
-0.014428 0.000009 0
-0.014365 -0.000068 0
-0.014160 -0.000146 0
-0.013810 -0.000224 0
-0.013319 -0.000299 0
-0.012692 -0.000371 0
-0.011940 -0.000437 0
-0.011075 -0.000494 0
-0.010115 -0.000541 0
-0.009080 -0.000576 0
-0.007993 -0.000598 0
-0.006878 -0.000605 0
-0.005764 -0.000596 0
-0.004678 -0.000572 0
-0.003646 -0.000533 0
-0.002694 -0.000480 0
-0.001847 -0.000414 0
-0.001125 -0.000339 0
-0.000542 -0.000255 0
-0.000110 -0.000167 0
0.000169 -0.000080 0
0.000301 0.000001 0
0.000304 0.000066 0
0.000211 0.000099 0
0.000082 0.000082 0
0.000000 0.000000 0
0.000000 -0.000000 0
0.000023 -0.000081 0
-0.000076 0.000075 0
-0.000385 0.000337 0
-0.000942 0.000629 0
-0.001748 0.000912 0
-0.002787 0.001165 0
-0.004031 0.001380 0
-0.005446 0.001554 0
-0.006998 0.001688 0
-0.008654 0.001786 0
-0.010382 0.001850 0
-0.012153 0.001883 0
-0.013938 0.001887 0
-0.015713 0.001864 0
-0.017450 0.001816 0
-0.019127 0.001742 0
-0.020720 0.001644 0
-0.022204 0.001520 0
-0.023557 0.001372 0
-0.024757 0.001199 0
-0.025780 0.001003 0
-0.026605 0.000784 0
-0.027213 0.000544 0
-0.027588 0.000286 0
-0.027714 0.000013 0
-0.027582 -0.000269 0
-0.027186 -0.000556 0
-0.026525 -0.000841 0
-0.025605 -0.001118 0
-0.024437 -0.001379 0
-0.023040 -0.001617 0
-0.021437 -0.001825 0
-0.019661 -0.001995 0
-0.017747 -0.002123 0
-0.015736 -0.002202 0
-0.013675 -0.002228 0
-0.011610 -0.002201 0
-0.009590 -0.002119 0
-0.007664 -0.001983 0
-0.005878 -0.001798 0
-0.004272 -0.001570 0
-0.002883 -0.001305 0
-0.001737 -0.001015 0
-0.000853 -0.000711 0
-0.000235 -0.000411 0
0.000128 -0.000134 0
0.000265 0.000090 0
0.000229 0.000222 0
0.000102 0.000211 0
0.000000 0.000000 0
0.000000 -0.000000 0
-0.000057 0.000016 0
-0.000349 0.000387 0
-0.000945 0.000922 0
-0.001872 0.001506 0
-0.003127 0.002072 0
-0.004685 0.002582 0
-0.006513 0.003019 0
-0.008566 0.003377 0
-0.010802 0.003655 0
-0.013177 0.003858 0
-0.015647 0.003990 0
-0.018172 0.004056 0
-0.020714 0.004061 0
-0.023235 0.004008 0
-0.025700 0.003898 0
-0.028075 0.003735 0
-0.030326 0.003517 0
-0.032419 0.003246 0
-0.034322 0.002922 0
-0.036004 0.002547 0
-0.037433 0.002122 0
-0.038581 0.001649 0
-0.039422 0.001134 0
-0.039933 0.000583 0
-0.040095 0.000003 0
-0.039896 -0.000596 0
-0.039328 -0.001203 0
-0.038393 -0.001805 0
-0.037098 -0.002387 0
-0.035461 -0.002936 0
-0.033506 -0.003436 0
-0.031266 -0.003873 0
-0.028785 -0.004232 0
-0.026111 -0.004501 0
-0.023301 -0.004670 0
-0.020415 -0.004731 0
-0.017517 -0.004681 0
-0.014674 -0.004518 0
-0.011949 -0.004246 0
-0.009405 -0.003872 0
-0.007098 -0.003409 0
-0.005075 -0.002873 0
-0.003373 -0.002284 0
-0.002016 -0.001669 0
-0.001012 -0.001061 0
-0.000348 -0.000499 0
0.000010 -0.000036 0
0.000121 0.000263 0
0.000076 0.000311 0
0.000000 0.000000 0
0.000000 0.000000 0
-0.000153 0.000269 0
-0.000674 0.000964 0
-0.001597 0.001860 0
-0.002929 0.002810 0
-0.004654 0.003725 0
-0.006740 0.004550 0
-0.009142 0.005260 0
-0.011811 0.005844 0
-0.014695 0.006299 0
-0.017741 0.006631 0
-0.020899 0.006846 0
-0.024118 0.006950 0
-0.027351 0.006950 0
-0.030551 0.006850 0
-0.033676 0.006655 0
-0.036681 0.006367 0
-0.039524 0.005987 0
-0.042164 0.005517 0
-0.044559 0.004957 0
-0.046671 0.004310 0
-0.048462 0.003580 0
-0.049897 0.002773 0
-0.050945 0.001895 0
-0.051577 0.000959 0
-0.051773 -0.000024 0
-0.051517 -0.001035 0
-0.050802 -0.002058 0
-0.049629 -0.003071 0
-0.048009 -0.004050 0
-0.045963 -0.004972 0
-0.043521 -0.005811 0
-0.040725 -0.006545 0
-0.037625 -0.007150 0
-0.034281 -0.007607 0
-0.030761 -0.007898 0
-0.027138 -0.008012 0
-0.023491 -0.007942 0
-0.019898 -0.007686 0
-0.016437 -0.007252 0
-0.013185 -0.006650 0
-0.010208 -0.005900 0
-0.007566 -0.005030 0
-0.005304 -0.004073 0
-0.003454 -0.003072 0
-0.002026 -0.002079 0
-0.001011 -0.001156 0
-0.000376 -0.000379 0
-0.000060 0.000156 0
0.000025 0.000332 0
0.000000 0.000000 0
0.000000 0.000000 0
-0.000252 0.000691 0
-0.001016 0.001831 0
-0.002285 0.003177 0
-0.004041 0.004563 0
-0.006250 0.005882 0
-0.008866 0.007069 0
-0.011836 0.008091 0
-0.015104 0.008930 0
-0.018610 0.009586 0
-0.022294 0.010062 0
-0.026097 0.010367 0
-0.029964 0.010508 0
-0.033838 0.010495 0
-0.037667 0.010333 0
-0.041398 0.010028 0
-0.044982 0.009583 0
-0.048368 0.009000 0
-0.051508 0.008281 0
-0.054354 0.007430 0
-0.056862 0.006450 0
-0.058986 0.005348 0
-0.060688 0.004131 0
-0.061930 0.002814 0
-0.062682 0.001411 0
-0.062919 -0.000057 0
-0.062624 -0.001567 0
-0.061789 -0.003091 0
-0.060416 -0.004597 0
-0.058517 -0.006053 0
-0.056116 -0.007424 0
-0.053248 -0.008674 0
-0.049959 -0.009769 0
-0.046307 -0.010675 0
-0.042360 -0.011364 0
-0.038196 -0.011812 0
-0.033898 -0.012001 0
-0.029555 -0.011922 0
-0.025258 -0.011571 0
-0.021099 -0.010959 0
-0.017163 -0.010102 0
-0.013530 -0.009028 0
-0.010270 -0.007777 0
-0.007437 -0.006396 0
-0.005071 -0.004948 0
-0.003189 -0.003504 0
-0.001786 -0.002149 0
-0.000834 -0.000987 0
-0.000278 -0.000138 0
-0.000036 0.000251 0
0.000000 0.000000 0
0.000000 0.000000 0
-0.000351 0.001285 0
-0.001358 0.002996 0
-0.002979 0.004884 0
-0.005164 0.006773 0
-0.007860 0.008549 0
-0.011005 0.010137 0
-0.014538 0.011500 0
-0.018391 0.012618 0
-0.022498 0.013489 0
-0.026792 0.014119 0
-0.031210 0.014515 0
-0.035688 0.014690 0
-0.040165 0.014652 0
-0.044582 0.014410 0
-0.048881 0.013971 0
-0.053005 0.013337 0
-0.056898 0.012514 0
-0.060507 0.011503 0
-0.063777 0.010311 0
-0.066659 0.008942 0
-0.069102 0.007406 0
-0.071063 0.005716 0
-0.072501 0.003889 0
-0.073382 0.001948 0
-0.073677 -0.000081 0
-0.073369 -0.002165 0
-0.072447 -0.004266 0
-0.070913 -0.006343 0
-0.068780 -0.008350 0
-0.066073 -0.010241 0
-0.062830 -0.011969 0
-0.059102 -0.013486 0
-0.054951 -0.014749 0
-0.050451 -0.015718 0
-0.045689 -0.016361 0
-0.040756 -0.016653 0
-0.035751 -0.016581 0
-0.030776 -0.016143 0
-0.025933 -0.015347 0
-0.021320 -0.014218 0
-0.017029 -0.012793 0
-0.013140 -0.011123 0
-0.009718 -0.009272 0
-0.006812 -0.007321 0
-0.004447 -0.005364 0
-0.002628 -0.003510 0
-0.001332 -0.001887 0
-0.000514 -0.000642 0
-0.000101 0.000054 0
0.000000 0.000000 0
0.000000 0.000000 0
-0.000445 0.002049 0
-0.001693 0.004458 0
-0.003661 0.006981 0
-0.006272 0.009443 0
-0.009451 0.011723 0
-0.013121 0.013748 0
-0.017205 0.015477 0
-0.021629 0.016891 0
-0.026319 0.017988 0
-0.031202 0.018774 0
-0.036208 0.019262 0
-0.041268 0.019463 0
-0.046318 0.019388 0
-0.051293 0.019049 0
-0.056130 0.018451 0
-0.060767 0.017600 0
-0.065144 0.016502 0
-0.069202 0.015160 0
-0.072882 0.013582 0
-0.076128 0.011775 0
-0.078888 0.009752 0
-0.081113 0.007530 0
-0.082759 0.005132 0
-0.083786 0.002587 0
-0.084166 -0.000070 0
-0.083877 -0.002797 0
-0.082906 -0.005546 0
-0.081253 -0.008264 0
-0.078932 -0.010893 0
-0.075966 -0.013375 0
-0.072396 -0.015646 0
-0.068274 -0.017649 0
-0.063666 -0.019326 0
-0.058653 -0.020626 0
-0.053324 -0.021508 0
-0.047780 -0.021940 0
-0.042130 -0.021901 0
-0.036486 -0.021389 0
-0.030960 -0.020414 0
-0.025664 -0.019005 0
-0.020700 -0.017208 0
-0.016160 -0.015087 0
-0.012124 -0.012725 0
-0.008650 -0.010219 0
-0.005775 -0.007688 0
-0.003513 -0.005264 0
-0.001853 -0.003101 0
-0.000757 -0.001369 0
-0.000166 -0.000263 0
0.000000 0.000000 0
0.000000 0.000000 0
-0.000536 0.002978 0
-0.002014 0.006211 0
-0.004321 0.009463 0
-0.007350 0.012564 0
-0.011002 0.015398 0
-0.015185 0.017892 0
-0.019809 0.020009 0
-0.024788 0.021732 0
-0.030043 0.023061 0
-0.035493 0.024007 0
-0.041065 0.024582 0
-0.046686 0.024801 0
-0.052285 0.024677 0
-0.057795 0.024222 0
-0.063148 0.023445 0
-0.068280 0.022351 0
-0.073126 0.020948 0
-0.077622 0.019240 0
-0.081706 0.017237 0
-0.085318 0.014949 0
-0.088403 0.012391 0
-0.090906 0.009586 0
-0.092780 0.006563 0
-0.093983 0.003355 0
-0.094480 0.000009 0
-0.094248 -0.003425 0
-0.093271 -0.006889 0
-0.091546 -0.010316 0
-0.089084 -0.013637 0
-0.085907 -0.016777 0
-0.082056 -0.019662 0
-0.077582 -0.022216 0
-0.072555 -0.024370 0
-0.067057 -0.026060 0
-0.061185 -0.027233 0
-0.055046 -0.027847 0
-0.048757 -0.027876 0
-0.042439 -0.027313 0
-0.036219 -0.026170 0
-0.030219 -0.024479 0
-0.024556 -0.022296 0
-0.019337 -0.019698 0
-0.014654 -0.016783 0
-0.010580 -0.013671 0
-0.007164 -0.010501 0
-0.004434 -0.007432 0
-0.002390 -0.004643 0
-0.001005 -0.002329 0
-0.000231 -0.000703 0
0.000000 0.000000 0
0.000000 -0.000000 0
-0.000621 0.004063 0
-0.002322 0.008243 0
-0.004954 0.012317 0
-0.008386 0.016124 0
-0.012498 0.019559 0
-0.017178 0.022555 0
-0.022325 0.025081 0
-0.027843 0.027125 0
-0.033644 0.028692 0
-0.039642 0.029796 0
-0.045759 0.030454 0
-0.051919 0.030683 0
-0.058048 0.030498 0
-0.064075 0.029912 0
-0.069930 0.028936 0
-0.075545 0.027578 0
-0.080851 0.025843 0
-0.085782 0.023740 0
-0.090273 0.021279 0
-0.094261 0.018472 0
-0.097685 0.015340 0
-0.100489 0.011907 0
-0.102620 0.008209 0
-0.104033 0.004288 0
-0.104689 0.000196 0
-0.104560 -0.004006 0
-0.103625 -0.008248 0
-0.101879 -0.012451 0
-0.099326 -0.016532 0
-0.095989 -0.020403 0
-0.091902 -0.023972 0
-0.087118 -0.027149 0
-0.081707 -0.029850 0
-0.075752 -0.031996 0
-0.069354 -0.033519 0
-0.062628 -0.034368 0
-0.055696 -0.034509 0
-0.048694 -0.033927 0
-0.041758 -0.032635 0
-0.035026 -0.030668 0
-0.028630 -0.028090 0
-0.022694 -0.024989 0
-0.017324 -0.021482 0
-0.012612 -0.017709 0
-0.008622 -0.013833 0
-0.005395 -0.010038 0
-0.002945 -0.006530 0
-0.001258 -0.003528 0
-0.000296 -0.001268 0
0.000000 0.000000 0
0.000000 -0.000000 0
-0.000702 0.005298 0
-0.002613 0.010543 0
-0.005556 0.015528 0
-0.009375 0.020108 0
-0.013928 0.024190 0
-0.019086 0.027720 0
-0.024737 0.030674 0
-0.030773 0.033050 0
-0.037099 0.034860 0
-0.043625 0.036122 0
-0.050268 0.036859 0
-0.056948 0.037090 0
-0.063590 0.036833 0
-0.070119 0.036104 0
-0.076463 0.034914 0
-0.082552 0.033272 0
-0.088316 0.031185 0
-0.093685 0.028663 0
-0.098591 0.025716 0
-0.102969 0.022361 0
-0.106755 0.018619 0
-0.109888 0.014521 0
-0.112312 0.010107 0
-0.113977 0.005425 0
-0.114838 0.000536 0
-0.114863 -0.004490 0
-0.114025 -0.009570 0
-0.112312 -0.014615 0
-0.109726 -0.019527 0
-0.106280 -0.024202 0
-0.102008 -0.028532 0
-0.096958 -0.032411 0
-0.091198 -0.035736 0
-0.084813 -0.038412 0
-0.077906 -0.040357 0
-0.070597 -0.041505 0
-0.063018 -0.041809 0
-0.055313 -0.041251 0
-0.047635 -0.039838 0
-0.040135 -0.037607 0
-0.032965 -0.034629 0
-0.026265 -0.031004 0
-0.020164 -0.026864 0
-0.014769 -0.022373 0
-0.010164 -0.017717 0
-0.006407 -0.013109 0
-0.003526 -0.008780 0
-0.001520 -0.004977 0
-0.000362 -0.001962 0
0.000000 0.000000 0
0.000000 -0.000000 0
-0.000779 0.006676 0
-0.002888 0.013097 0
-0.006125 0.019079 0
-0.010310 0.024496 0
-0.015282 0.029270 0
-0.020897 0.033364 0
-0.027028 0.036767 0
-0.033559 0.039487 0
-0.040388 0.041544 0
-0.047420 0.042965 0
-0.054568 0.043777 0
-0.061750 0.044004 0
-0.068887 0.043668 0
-0.075904 0.042786 0
-0.082728 0.041370 0
-0.089286 0.039430 0
-0.095507 0.036976 0
-0.101319 0.034016 0
-0.106653 0.030563 0
-0.111441 0.026636 0
-0.115614 0.022258 0
-0.119109 0.017464 0
-0.121865 0.012297 0
-0.123828 0.006814 0
-0.124947 0.001082 0
-0.125181 -0.004820 0
-0.124500 -0.010798 0
-0.122882 -0.016751 0
-0.120322 -0.022565 0
-0.116827 -0.028121 0
-0.112424 -0.033294 0
-0.107156 -0.037959 0
-0.101088 -0.041995 0
-0.094303 -0.045288 0
-0.086905 -0.047736 0
-0.079020 -0.049257 0
-0.070786 -0.049792 0
-0.062362 -0.049310 0
-0.053910 -0.047813 0
-0.045604 -0.045338 0
-0.037611 -0.041960 0
-0.030097 -0.037790 0
-0.023209 -0.032979 0
-0.017079 -0.027709 0
-0.011812 -0.022195 0
-0.007485 -0.016677 0
-0.004142 -0.011416 0
-0.001797 -0.006691 0
-0.000432 -0.002789 0
0.000000 0.000000 0
0.000000 -0.000000 0
-0.000849 0.008186 0
-0.003144 0.015890 0
-0.006658 0.022951 0
-0.011187 0.029265 0
-0.016553 0.034777 0
-0.022599 0.039465 0
-0.029183 0.043335 0
-0.036184 0.046410 0
-0.043490 0.048721 0
-0.051004 0.050303 0
-0.058635 0.051188 0
-0.066297 0.051408 0
-0.073913 0.050988 0
-0.081404 0.049945 0
-0.088698 0.048296 0
-0.095720 0.046051 0
-0.102398 0.043218 0
-0.108661 0.039809 0
-0.114436 0.035837 0
-0.119653 0.031321 0
-0.124241 0.026287 0
-0.128133 0.020773 0
-0.131265 0.014826 0
-0.133574 0.008506 0
-0.135005 0.001889 0
-0.135510 -0.004937 0
-0.135049 -0.011869 0
-0.133594 -0.018793 0
-0.131127 -0.025582 0
-0.127649 -0.032099 0
-0.123176 -0.038203 0
-0.117745 -0.043747 0
-0.111415 -0.048590 0
-0.104267 -0.052595 0
-0.096403 -0.055640 0
-0.087952 -0.057623 0
-0.079062 -0.058467 0
-0.069899 -0.058128 0
-0.060644 -0.056596 0
-0.051488 -0.053906 0
-0.042623 -0.050135 0
-0.034236 -0.045405 0
-0.026503 -0.039882 0
-0.019579 -0.033770 0
-0.013594 -0.027312 0
-0.008648 -0.020780 0
-0.004805 -0.014468 0
-0.002093 -0.008688 0
-0.000505 -0.003758 0
0.000000 0.000000 0
0.000000 -0.000000 0
-0.000915 0.009820 0
-0.003381 0.018906 0
-0.007150 0.027122 0
-0.012000 0.034392 0
-0.017733 0.040681 0
-0.024179 0.045994 0
-0.031188 0.050352 0
-0.038629 0.053794 0
-0.046385 0.056365 0
-0.054353 0.058110 0
-0.062441 0.059070 0
-0.070562 0.059282 0
-0.078636 0.058775 0
-0.086586 0.057571 0
-0.094338 0.055685 0
-0.101817 0.053131 0
-0.108953 0.049917 0
-0.115671 0.046054 0
-0.121899 0.041555 0
-0.127565 0.036441 0
-0.132596 0.030739 0
-0.136921 0.024488 0
-0.140470 0.017738 0
-0.143176 0.010555 0
-0.144978 0.003018 0
-0.145816 -0.004776 0
-0.145644 -0.012715 0
-0.144421 -0.020673 0
-0.142121 -0.028510 0
-0.138731 -0.036071 0
-0.134259 -0.043197 0
-0.128730 -0.049720 0
-0.122195 -0.055474 0
-0.114728 -0.060300 0
-0.106432 -0.064050 0
-0.097435 -0.066598 0
-0.087891 -0.067845 0
-0.077977 -0.067727 0
-0.067892 -0.066223 0
-0.057846 -0.063359 0
-0.048054 -0.059212 0
-0.038734 -0.053911 0
-0.030089 -0.047636 0
-0.022304 -0.040618 0
-0.015539 -0.033125 0
-0.009919 -0.025466 0
-0.005529 -0.017971 0
-0.002417 -0.010991 0
-0.000586 -0.004882 0
0.000000 0.000000 0
0.000000 0.000000 0
-0.000974 0.011567 0
-0.003598 0.022126 0
-0.007600 0.031569 0
-0.012742 0.039847 0
-0.018812 0.046956 0
-0.025627 0.052920 0
-0.033028 0.057785 0
-0.040876 0.061607 0
-0.049049 0.064446 0
-0.057442 0.066359 0
-0.065959 0.067397 0
-0.074512 0.067603 0
-0.083022 0.067011 0
-0.091411 0.065647 0
-0.099605 0.063527 0
-0.107533 0.060666 0
-0.115121 0.057072 0
-0.122296 0.052756 0
-0.128987 0.047732 0
-0.135119 0.042018 0
-0.140617 0.035643 0
-0.145407 0.028647 0
-0.149415 0.021081 0
-0.152568 0.013014 0
-0.154796 0.004529 0
-0.156033 -0.004270 0
-0.156220 -0.013264 0
-0.155305 -0.022316 0
-0.153250 -0.031272 0
-0.150029 -0.039961 0
-0.145635 -0.048204 0
-0.140082 -0.055811 0
-0.133409 -0.062592 0
-0.125683 -0.068358 0
-0.117000 -0.072934 0
-0.107487 -0.076165 0
-0.097304 -0.077925 0
-0.086637 -0.078126 0
-0.075700 -0.076728 0
-0.064725 -0.073744 0
-0.053956 -0.069247 0
-0.043639 -0.063371 0
-0.034012 -0.056312 0
-0.025294 -0.048319 0
-0.017678 -0.039698 0
-0.011319 -0.030790 0
-0.006329 -0.021970 0
-0.002775 -0.013631 0
-0.000675 -0.006175 0
0.000000 -0.000000 0
0.000000 0.000000 0
-0.001028 0.013418 0
-0.003792 0.025532 0
-0.008004 0.036266 0
-0.013408 0.045603 0
-0.019782 0.053567 0
-0.026931 0.060209 0
-0.034687 0.065600 0
-0.042905 0.069816 0
-0.051461 0.072932 0
-0.060244 0.075019 0
-0.069156 0.076140 0
-0.078112 0.076345 0
-0.087030 0.075673 0
-0.095834 0.074154 0
-0.104451 0.071807 0
-0.112811 0.068646 0
-0.120842 0.064680 0
-0.128472 0.059920 0
-0.135629 0.054378 0
-0.142237 0.048071 0
-0.148222 0.041027 0
-0.153505 0.033286 0
-0.158008 0.024899 0
-0.161653 0.015935 0
-0.164362 0.006483 0
-0.166060 -0.003352 0
-0.166676 -0.013443 0
-0.166148 -0.023643 0
-0.164421 -0.033786 0
-0.161455 -0.043686 0
-0.157227 -0.053143 0
-0.151737 -0.061945 0
-0.145008 -0.069873 0
-0.137095 -0.076709 0
-0.128086 -0.082246 0
-0.118104 -0.086294 0
-0.107310 -0.088695 0
-0.095900 -0.089331 0
-0.084101 -0.088135 0
-0.072168 -0.085103 0
-0.060373 -0.080298 0
-0.048997 -0.073855 0
-0.038315 -0.065981 0
-0.028586 -0.056951 0
-0.020041 -0.047101 0
-0.012870 -0.036815 0
-0.007218 -0.026515 0
-0.003174 -0.016645 0
-0.000775 -0.007657 0
0.000000 -0.000000 0
0.000000 0.000000 0
-0.001074 0.015359 0
-0.003961 0.029102 0
-0.008357 0.041186 0
-0.013993 0.051626 0
-0.020634 0.060478 0
-0.028078 0.067825 0
-0.036150 0.073760 0
-0.044699 0.078381 0
-0.053597 0.081784 0
-0.062730 0.084055 0
-0.072001 0.085265 0
-0.081323 0.085476 0
-0.090616 0.084733 0
-0.099805 0.083069 0
-0.108820 0.080505 0
-0.117590 0.077056 0
-0.126048 0.072733 0
-0.134121 0.067543 0
-0.141739 0.061497 0
-0.148827 0.054611 0
-0.155308 0.046911 0
-0.161104 0.038433 0
-0.166131 0.029229 0
-0.170307 0.019368 0
-0.173546 0.008937 0
-0.175764 -0.001955 0
-0.176880 -0.013176 0
-0.176816 -0.024572 0
-0.175503 -0.035965 0
-0.172884 -0.047155 0
-0.168919 -0.057923 0
-0.163588 -0.068031 0
-0.156898 -0.077234 0
-0.148888 -0.085279 0
-0.139633 -0.091924 0
-0.129248 -0.096940 0
-0.117892 -0.100129 0
-0.105765 -0.101335 0
-0.093109 -0.100460 0
-0.080199 -0.097472 0
-0.067339 -0.092418 0
-0.054846 -0.085430 0
-0.043036 -0.076723 0
-0.032215 -0.066594 0
-0.022657 -0.055413 0
-0.014596 -0.043612 0
-0.008211 -0.031665 0
-0.003623 -0.020074 0
-0.000888 -0.009350 0
0.000000 -0.000000 0
0.000000 0.000000 0
-0.001114 0.017379 0
-0.004104 0.032814 0
-0.008656 0.046297 0
-0.014489 0.057880 0
-0.021360 0.067652 0
-0.029058 0.075725 0
-0.037402 0.082221 0
-0.046238 0.087262 0
-0.055433 0.090962 0
-0.064873 0.093424 0
-0.074460 0.094733 0
-0.084107 0.094960 0
-0.093735 0.094155 0
-0.103273 0.092358 0
-0.112650 0.089592 0
-0.121801 0.085874 0
-0.130658 0.081211 0
-0.139154 0.075612 0
-0.147219 0.069084 0
-0.154779 0.061640 0
-0.161757 0.053304 0
-0.168074 0.044108 0
-0.173645 0.034102 0
-0.178380 0.023350 0
-0.182190 0.011941 0
-0.184980 -0.000018 0
-0.186659 -0.012391 0
-0.187134 -0.025020 0
-0.186322 -0.037718 0
-0.184147 -0.050270 0
-0.180549 -0.062440 0
-0.175486 -0.073966 0
-0.168945 -0.084573 0
-0.160946 -0.093975 0
-0.151544 -0.101886 0
-0.140844 -0.108035 0
-0.128995 -0.112178 0
-0.116201 -0.114114 0
-0.102713 -0.113700 0
-0.088827 -0.110872 0
-0.074875 -0.105652 0
-0.061215 -0.098158 0
-0.048209 -0.088612 0
-0.036214 -0.077331 0
-0.025556 -0.064720 0
-0.016517 -0.051261 0
-0.009321 -0.037487 0
-0.004127 -0.023967 0
-0.001016 -0.011280 0
0.000000 -0.000000 0
0.000000 0.000000 0
-0.001145 0.019464 0
-0.004220 0.036644 0
-0.008898 0.051570 0
-0.014892 0.064330 0
-0.021951 0.075048 0
-0.029859 0.083867 0
-0.038429 0.090940 0
-0.047504 0.096412 0
-0.056948 0.100419 0
-0.066646 0.103082 0
-0.076500 0.104499 0
-0.086424 0.104751 0
-0.096340 0.103898 0
-0.106180 0.101983 0
-0.115877 0.099033 0