# vtk DataFile Version 2.0
generated by CFD-lab course output (written by Tobias Neckel) 
ASCII

DATASET STRUCTURED_GRID
DIMENSIONS  51 51 1 
POINTS 2601 float

0.000000 0.000000 0
0.020000 0.000000 0
0.040000 0.000000 0
0.060000 0.000000 0
0.080000 0.000000 0
0.100000 0.000000 0
0.120000 0.000000 0
0.140000 0.000000 0
0.160000 0.000000 0
0.180000 0.000000 0
0.200000 0.000000 0
0.220000 0.000000 0
0.240000 0.000000 0
0.260000 0.000000 0
0.280000 0.000000 0
0.300000 0.000000 0
0.320000 0.000000 0
0.340000 0.000000 0
0.360000 0.000000 0
0.380000 0.000000 0
0.400000 0.000000 0
0.420000 0.000000 0
0.440000 0.000000 0
0.460000 0.000000 0
0.480000 0.000000 0
0.500000 0.000000 0
0.520000 0.000000 0
0.540000 0.000000 0
0.560000 0.000000 0
0.580000 0.000000 0
0.600000 0.000000 0
0.620000 0.000000 0
0.640000 0.000000 0
0.660000 0.000000 0
0.680000 0.000000 0
0.700000 0.000000 0
0.720000 0.000000 0
0.740000 0.000000 0
0.760000 0.000000 0
0.780000 0.000000 0
0.800000 0.000000 0
0.820000 0.000000 0
0.840000 0.000000 0
0.860000 0.000000 0
0.880000 0.000000 0
0.900000 0.000000 0
0.920000 0.000000 0
0.940000 0.000000 0
0.960000 0.000000 0
0.980000 0.000000 0
1.000000 0.000000 0
0.000000 0.020000 0
0.020000 0.020000 0
0.040000 0.020000 0
0.060000 0.020000 0
0.080000 0.020000 0
0.100000 0.020000 0
0.120000 0.020000 0
0.140000 0.020000 0
0.160000 0.020000 0
0.180000 0.020000 0
0.200000 0.020000 0
0.220000 0.020000 0
0.240000 0.020000 0
0.260000 0.020000 0
0.280000 0.020000 0
0.300000 0.020000 0
0.320000 0.020000 0
0.340000 0.020000 0
0.360000 0.020000 0
0.380000 0.020000 0
0.400000 0.020000 0
0.420000 0.020000 0
0.440000 0.020000 0
0.460000 0.020000 0
0.480000 0.020000 0
0.500000 0.020000 0
0.520000 0.020000 0
0.540000 0.020000 0
0.560000 0.020000 0
0.580000 0.020000 0
0.600000 0.020000 0
0.620000 0.020000 0
0.640000 0.020000 0
0.660000 0.020000 0
0.680000 0.020000 0
0.700000 0.020000 0
0.720000 0.020000 0
0.740000 0.020000 0
0.760000 0.020000 0
0.780000 0.020000 0
0.800000 0.020000 0
0.820000 0.020000 0
0.840000 0.020000 0
0.860000 0.020000 0
0.880000 0.020000 0
0.900000 0.020000 0
0.920000 0.020000 0
0.940000 0.020000 0
0.960000 0.020000 0
0.980000 0.020000 0
1.000000 0.020000 0
0.000000 0.040000 0
0.020000 0.040000 0
0.040000 0.040000 0
0.060000 0.040000 0
0.080000 0.040000 0
0.100000 0.040000 0
0.120000 0.040000 0
0.140000 0.040000 0
0.160000 0.040000 0
0.180000 0.040000 0
0.200000 0.040000 0
0.220000 0.040000 0
0.240000 0.040000 0
0.260000 0.040000 0
0.280000 0.040000 0
0.300000 0.040000 0
0.320000 0.040000 0
0.340000 0.040000 0
0.360000 0.040000 0
0.380000 0.040000 0
0.400000 0.040000 0
0.420000 0.040000 0
0.440000 0.040000 0
0.460000 0.040000 0
0.480000 0.040000 0
0.500000 0.040000 0
0.520000 0.040000 0
0.540000 0.040000 0
0.560000 0.040000 0
0.580000 0.040000 0
0.600000 0.040000 0
0.620000 0.040000 0
0.640000 0.040000 0
0.660000 0.040000 0
0.680000 0.040000 0
0.700000 0.040000 0
0.720000 0.040000 0
0.740000 0.040000 0
0.760000 0.040000 0
0.780000 0.040000 0
0.800000 0.040000 0
0.820000 0.040000 0
0.840000 0.040000 0
0.860000 0.040000 0
0.880000 0.040000 0
0.900000 0.040000 0
0.920000 0.040000 0
0.940000 0.040000 0
0.960000 0.040000 0
0.980000 0.040000 0
1.000000 0.040000 0
0.000000 0.060000 0
0.020000 0.060000 0
0.040000 0.060000 0
0.060000 0.060000 0
0.080000 0.060000 0
0.100000 0.060000 0
0.120000 0.060000 0
0.140000 0.060000 0
0.160000 0.060000 0
0.180000 0.060000 0
0.200000 0.060000 0
0.220000 0.060000 0
0.240000 0.060000 0
0.260000 0.060000 0
0.280000 0.060000 0
0.300000 0.060000 0
0.320000 0.060000 0
0.340000 0.060000 0
0.360000 0.060000 0
0.380000 0.060000 0
0.400000 0.060000 0
0.420000 0.060000 0
0.440000 0.060000 0
0.460000 0.060000 0
0.480000 0.060000 0
0.500000 0.060000 0
0.520000 0.060000 0
0.540000 0.060000 0
0.560000 0.060000 0
0.580000 0.060000 0
0.600000 0.060000 0
0.620000 0.060000 0
0.640000 0.060000 0
0.660000 0.060000 0
0.680000 0.060000 0
0.700000 0.060000 0
0.720000 0.060000 0
0.740000 0.060000 0
0.760000 0.060000 0
0.780000 0.060000 0
0.800000 0.060000 0
0.820000 0.060000 0
0.840000 0.060000 0
0.860000 0.060000 0
0.880000 0.060000 0
0.900000 0.060000 0
0.920000 0.060000 0
0.940000 0.060000 0
0.960000 0.060000 0
0.980000 0.060000 0
1.000000 0.060000 0
0.000000 0.080000 0
0.020000 0.080000 0
0.040000 0.080000 0
0.060000 0.080000 0
0.080000 0.080000 0
0.100000 0.080000 0
0.120000 0.080000 0
0.140000 0.080000 0
0.160000 0.080000 0
0.180000 0.080000 0
0.200000 0.080000 0
0.220000 0.080000 0
0.240000 0.080000 0
0.260000 0.080000 0
0.280000 0.080000 0
0.300000 0.080000 0
0.320000 0.080000 0
0.340000 0.080000 0
0.360000 0.080000 0
0.380000 0.080000 0
0.400000 0.080000 0
0.420000 0.080000 0
0.440000 0.080000 0
0.460000 0.080000 0
0.480000 0.080000 0
0.500000 0.080000 0
0.520000 0.080000 0
0.540000 0.080000 0
0.560000 0.080000 0
0.580000 0.080000 0
0.600000 0.080000 0
0.620000 0.080000 0
0.640000 0.080000 0
0.660000 0.080000 0
0.680000 0.080000 0
0.700000 0.080000 0
0.720000 0.080000 0
0.740000 0.080000 0
0.760000 0.080000 0
0.780000 0.080000 0
0.800000 0.080000 0
0.820000 0.080000 0
0.840000 0.080000 0
0.860000 0.080000 0
0.880000 0.080000 0
0.900000 0.080000 0
0.920000 0.080000 0
0.940000 0.080000 0
0.960000 0.080000 0
0.980000 0.080000 0
1.000000 0.080000 0
0.000000 0.100000 0
0.020000 0.100000 0
0.040000 0.100000 0
0.060000 0.100000 0
0.080000 0.100000 0
0.100000 0.100000 0
0.120000 0.100000 0
0.140000 0.100000 0
0.160000 0.100000 0
0.180000 0.100000 0
0.200000 0.100000 0
0.220000 0.100000 0
0.240000 0.100000 0
0.260000 0.100000 0
0.280000 0.100000 0
0.300000 0.100000 0
0.320000 0.100000 0
0.340000 0.100000 0
0.360000 0.100000 0
0.380000 0.100000 0
0.400000 0.100000 0
0.420000 0.100000 0
0.440000 0.100000 0
0.460000 0.100000 0
0.480000 0.100000 0
0.500000 0.100000 0
0.520000 0.100000 0
0.540000 0.100000 0
0.560000 0.100000 0
0.580000 0.100000 0
0.600000 0.100000 0
0.620000 0.100000 0
0.640000 0.100000 0
0.660000 0.100000 0
0.680000 0.100000 0
0.700000 0.100000 0
0.720000 0.100000 0
0.740000 0.100000 0
0.760000 0.100000 0
0.780000 0.100000 0
0.800000 0.100000 0
0.820000 0.100000 0
0.840000 0.100000 0
0.860000 0.100000 0
0.880000 0.100000 0
0.900000 0.100000 0
0.920000 0.100000 0
0.940000 0.100000 0
0.960000 0.100000 0
0.980000 0.100000 0
1.000000 0.100000 0
0.000000 0.120000 0
0.020000 0.120000 0
0.040000 0.120000 0
0.060000 0.120000 0
0.080000 0.120000 0
0.100000 0.120000 0
0.120000 0.120000 0
0.140000 0.120000 0
0.160000 0.120000 0
0.180000 0.120000 0
0.200000 0.120000 0
0.220000 0.120000 0
0.240000 0.120000 0
0.260000 0.120000 0
0.280000 0.120000 0
0.300000 0.120000 0
0.320000 0.120000 0
0.340000 0.120000 0
0.360000 0.120000 0
0.380000 0.120000 0
0.400000 0.120000 0
0.420000 0.120000 0
0.440000 0.120000 0
0.460000 0.120000 0
0.480000 0.120000 0
0.500000 0.120000 0
0.520000 0.120000 0
0.540000 0.120000 0
0.560000 0.120000 0
0.580000 0.120000 0
0.600000 0.120000 0
0.620000 0.120000 0
0.640000 0.120000 0
0.660000 0.120000 0
0.680000 0.120000 0
0.700000 0.120000 0
0.720000 0.120000 0
0.740000 0.120000 0
0.760000 0.120000 0
0.780000 0.120000 0
0.800000 0.120000 0
0.820000 0.120000 0
0.840000 0.120000 0
0.860000 0.120000 0
0.880000 0.120000 0
0.900000 0.120000 0
0.920000 0.120000 0
0.940000 0.120000 0
0.960000 0.120000 0
0.980000 0.120000 0
1.000000 0.120000 0
0.000000 0.140000 0
0.020000 0.140000 0
0.040000 0.140000 0
0.060000 0.140000 0
0.080000 0.140000 0
0.100000 0.140000 0
0.120000 0.140000 0
0.140000 0.140000 0
0.160000 0.140000 0
0.180000 0.140000 0
0.200000 0.140000 0
0.220000 0.140000 0
0.240000 0.140000 0
0.260000 0.140000 0
0.280000 0.140000 0
0.300000 0.140000 0
0.320000 0.140000 0
0.340000 0.140000 0
0.360000 0.140000 0
0.380000 0.140000 0
0.400000 0.140000 0
0.420000 0.140000 0
0.440000 0.140000 0
0.460000 0.140000 0
0.480000 0.140000 0
0.500000 0.140000 0
0.520000 0.140000 0
0.540000 0.140000 0
0.560000 0.140000 0
0.580000 0.140000 0
0.600000 0.140000 0
0.620000 0.140000 0
0.640000 0.140000 0
0.660000 0.140000 0
0.680000 0.140000 0
0.700000 0.140000 0
0.720000 0.140000 0
0.740000 0.140000 0
0.760000 0.140000 0
0.780000 0.140000 0
0.800000 0.140000 0
0.820000 0.140000 0
0.840000 0.140000 0
0.860000 0.140000 0
0.880000 0.140000 0
0.900000 0.140000 0
0.920000 0.140000 0
0.940000 0.140000 0
0.960000 0.140000 0
0.980000 0.140000 0
1.000000 0.140000 0
0.000000 0.160000 0
0.020000 0.160000 0
0.040000 0.160000 0
0.060000 0.160000 0
0.080000 0.160000 0
0.100000 0.160000 0
0.120000 0.160000 0
0.140000 0.160000 0
0.160000 0.160000 0
0.180000 0.160000 0
0.200000 0.160000 0
0.220000 0.160000 0
0.240000 0.160000 0
0.260000 0.160000 0
0.280000 0.160000 0
0.300000 0.160000 0
0.320000 0.160000 0
0.340000 0.160000 0
0.360000 0.160000 0
0.380000 0.160000 0
0.400000 0.160000 0
0.420000 0.160000 0
0.440000 0.160000 0
0.460000 0.160000 0
0.480000 0.160000 0
0.500000 0.160000 0
0.520000 0.160000 0
0.540000 0.160000 0
0.560000 0.160000 0
0.580000 0.160000 0
0.600000 0.160000 0
0.620000 0.160000 0
0.640000 0.160000 0
0.660000 0.160000 0
0.680000 0.160000 0
0.700000 0.160000 0
0.720000 0.160000 0
0.740000 0.160000 0
0.760000 0.160000 0
0.780000 0.160000 0
0.800000 0.160000 0
0.820000 0.160000 0
0.840000 0.160000 0
0.860000 0.160000 0
0.880000 0.160000 0
0.900000 0.160000 0
0.920000 0.160000 0
0.940000 0.160000 0
0.960000 0.160000 0
0.980000 0.160000 0
1.000000 0.160000 0
0.000000 0.180000 0
0.020000 0.180000 0
0.040000 0.180000 0
0.060000 0.180000 0
0.080000 0.180000 0
0.100000 0.180000 0
0.120000 0.180000 0
0.140000 0.180000 0
0.160000 0.180000 0
0.180000 0.180000 0
0.200000 0.180000 0
0.220000 0.180000 0
0.240000 0.180000 0
0.260000 0.180000 0
0.280000 0.180000 0
0.300000 0.180000 0
0.320000 0.180000 0
0.340000 0.180000 0
0.360000 0.180000 0
0.380000 0.180000 0
0.400000 0.180000 0
0.420000 0.180000 0
0.440000 0.180000 0
0.460000 0.180000 0
0.480000 0.180000 0
0.500000 0.180000 0
0.520000 0.180000 0
0.540000 0.180000 0
0.560000 0.180000 0
0.580000 0.180000 0
0.600000 0.180000 0
0.620000 0.180000 0
[...]
POINT_DATA 2601 

VECTORS velocity float
0.000000 0.000000 0
0.000000 0.000000 0
0.000000 0.000000 0
0.000000 0.000000 0
-0.000000 0.000000 0
-0.000000 0.000000 0
-0.000000 0.000000 0
-0.000000 0.000000 0
0.000000 0.000000 0
0.000000 0.000000 0
0.000000 0.000000 0
0.000000 0.000000 0
0.000000 0.000000 0
-0.000000 0.000000 0
-0.000000 0.000000 0
-0.000000 0.000000 0
-0.000000 0.000000 0
-0.000000 0.000000 0
-0.000000 0.000000 0
-0.000000 0.000000 0
-0.000000 0.000000 0
-0.000000 0.000000 0
-0.000000 0.000000 0
-0.000000 0.000000 0
-0.000000 0.000000 0
-0.000000 0.000000 0
-0.000000 0.000000 0
-0.000000 0.000000 0
-0.000000 0.000000 0
-0.000000 0.000000 0
-0.000000 0.000000 0
-0.000000 0.000000 0
-0.000000 0.000000 0
-0.000000 0.000000 0
-0.000000 0.000000 0
-0.000000 0.000000 0
-0.000000 0.000000 0
-0.000000 0.000000 0
-0.000000 0.000000 0
-0.000000 0.000000 0
-0.000000 0.000000 0
-0.000000 0.000000 0
0.000000 0.000000 0
0.000000 0.000000 0
0.000000 0.000000 0
0.000000 0.000000 0
0.000000 0.000000 0
0.000000 0.000000 0
0.000000 0.000000 0
-0.000000 0.000000 0
0.000000 0.000000 0
0.000000 0.000000 0
0.000060 -0.000059 0
0.000081 -0.000022 0
-0.000015 0.000055 0
-0.000256 0.000143 0
-0.000644 0.000226 0
-0.001168 0.000300 0
-0.001808 0.000361 0
-0.002546 0.000410 0
-0.003360 0.000447 0
-0.004232 0.000474 0
-0.005144 0.000491 0
-0.006080 0.000500 0
-0.007025 0.000501 0
-0.007965 0.000495 0
-0.008887 0.000483 0
-0.009779 0.000465 0
-0.010627 0.000440 0
-0.011420 0.000408 0
-0.012146 0.000370 0
-0.012791 0.000324 0
-0.013344 0.000273 0
-0.013793 0.000215 0
-0.014127 0.000151 0
-0.014337 0.000082 0
-0.014413 0.000009 0
-0.014350 -0.000067 0
-0.014145 -0.000145 0
-0.013796 -0.000223 0
-0.013305 -0.000299 0
-0.012680 -0.000371 0
-0.011929 -0.000436 0
-0.011065 -0.000494 0
-0.010106 -0.000541 0
-0.009072 -0.000576 0
-0.007986 -0.000597 0
-0.006873 -0.000604 0
-0.005761 -0.000595 0
-0.004675 -0.000571 0
-0.003644 -0.000533 0
-0.002694 -0.000480 0
-0.001847 -0.000414 0
-0.001125 -0.000338 0
-0.000543 -0.000255 0
-0.000111 -0.000167 0
0.000168 -0.000080 0
0.000300 0.000001 0
0.000303 0.000065 0
0.000211 0.000099 0
0.000082 0.000081 0
0.000000 0.000000 0
0.000000 0.000000 0
0.000024 -0.000080 0
-0.000076 0.000075 0
-0.000386 0.000336 0
-0.000942 0.000628 0
-0.001748 0.000911 0
-0.002785 0.001164 0
-0.004027 0.001378 0
-0.005440 0.001553 0
-0.006990 0.001687 0
-0.008645 0.001784 0
-0.010371 0.001848 0
-0.012140 0.001881 0
-0.013923 0.001885 0
-0.015695 0.001862 0
-0.017431 0.001814 0
-0.019105 0.001740 0
-0.020696 0.001642 0
-0.022179 0.001519 0
-0.023531 0.001371 0
-0.024729 0.001198 0
-0.025751 0.001002 0
-0.026575 0.000783 0
-0.027183 0.000543 0
-0.027557 0.000286 0
-0.027684 0.000014 0
-0.027552 -0.000268 0
-0.027157 -0.000555 0
-0.026497 -0.000839 0
-0.025578 -0.001116 0
-0.024413 -0.001377 0
-0.023017 -0.001615 0
-0.021417 -0.001822 0
-0.019643 -0.001993 0
-0.017732 -0.002120 0
-0.015724 -0.002199 0
-0.013664 -0.002226 0
-0.011602 -0.002198 0
-0.009584 -0.002116 0
-0.007660 -0.001981 0
-0.005875 -0.001797 0
-0.004271 -0.001569 0
-0.002883 -0.001304 0
-0.001738 -0.001014 0
-0.000854 -0.000711 0
-0.000236 -0.000411 0
0.000127 -0.000135 0
0.000264 0.000089 0
0.000229 0.000221 0
0.000102 0.000211 0
0.000000 0.000000 0
0.000000 0.000000 0
-0.000057 0.000017 0
-0.000349 0.000386 0
-0.000945 0.000921 0
-0.001871 0.001504 0
-0.003124 0.002070 0
-0.004680 0.002580 0
-0.006505 0.003017 0
-0.008556 0.003374 0
-0.010790 0.003651 0
-0.013162 0.003854 0
-0.015629 0.003985 0
-0.018152 0.004051 0
-0.020690 0.004056 0
-0.023208 0.004003 0
-0.025670 0.003894 0
-0.028042 0.003730 0
-0.030290 0.003513 0
-0.032381 0.003242 0
-0.034282 0.002919 0
-0.035962 0.002544 0
-0.037390 0.002119 0
-0.038537 0.001648 0
-0.039377 0.001134 0
-0.039888 0.000583 0
-0.040050 0.000004 0
-0.039852 -0.000595 0
-0.039286 -0.001200 0
-0.038352 -0.001801 0
-0.037060 -0.002383 0
-0.035425 -0.002932 0
-0.033472 -0.003431 0
-0.031236 -0.003868 0
-0.028758 -0.004226 0
-0.026088 -0.004495 0
-0.023281 -0.004664 0
-0.020398 -0.004726 0
-0.017504 -0.004676 0
-0.014664 -0.004513 0
-0.011942 -0.004242 0
-0.009400 -0.003869 0
-0.007095 -0.003407 0
-0.005074 -0.002871 0
-0.003373 -0.002283 0
-0.002017 -0.001669 0
-0.001013 -0.001061 0
-0.000349 -0.000499 0
0.000009 -0.000037 0
0.000120 0.000262 0
0.000075 0.000310 0
0.000000 0.000000 0
0.000000 0.000000 0
-0.000153 0.000269 0
-0.000674 0.000963 0
-0.001596 0.001857 0
-0.002926 0.002807 0
-0.004649 0.003721 0
-0.006731 0.004546 0
-0.009131 0.005255 0
-0.011797 0.005837 0
-0.014677 0.006292 0
-0.017720 0.006623 0
-0.020874 0.006837 0
-0.024089 0.006941 0
-0.027318 0.006941 0
-0.030515 0.006842 0
-0.033635 0.006648 0
-0.036637 0.006360 0
-0.039477 0.005981 0
-0.042113 0.005511 0
-0.044506 0.004952 0
-0.046616 0.004306 0
-0.048405 0.003577 0
-0.049839 0.002770 0
-0.050886 0.001894 0
-0.051518 0.000959 0
-0.051714 -0.000022 0
-0.051459 -0.001033 0
-0.050746 -0.002054 0
-0.049575 -0.003065 0
-0.047958 -0.004043 0
-0.045915 -0.004964 0
-0.043477 -0.005803 0
-0.040684 -0.006536 0
-0.037589 -0.007141 0
-0.034249 -0.007597 0
-0.030734 -0.007889 0
-0.027115 -0.008003 0
-0.023472 -0.007933 0
-0.019882 -0.007678 0
-0.016426 -0.007244 0
-0.013176 -0.006644 0
-0.010202 -0.005895 0
-0.007563 -0.005026 0
-0.005303 -0.004071 0
-0.003454 -0.003071 0
-0.002026 -0.002079 0
-0.001012 -0.001157 0
-0.000376 -0.000381 0
-0.000060 0.000155 0
0.000025 0.000331 0
0.000000 0.000000 0
0.000000 -0.000000 0
-0.000253 0.000690 0
-0.001016 0.001829 0
-0.002283 0.003173 0
-0.004036 0.004558 0
-0.006241 0.005876 0
-0.008854 0.007062 0
-0.011821 0.008082 0
-0.015086 0.008920 0
-0.018587 0.009574 0
-0.022267 0.010050 0
-0.026065 0.010354 0
-0.029927 0.010495 0
-0.033796 0.010482 0
-0.037620 0.010321 0
-0.041347 0.010016 0
-0.044927 0.009571 0
-0.048309 0.008989 0
-0.051445 0.008272 0
-0.054289 0.007422 0
-0.056793 0.006444 0
-0.058916 0.005343 0
-0.060616 0.004128 0
-0.061858 0.002812 0
-0.062609 0.001411 0
-0.062847 -0.000055 0
-0.062554 -0.001563 0
-0.061721 -0.003084 0
-0.060351 -0.004589 0
-0.058455 -0.006044 0
-0.056057 -0.007413 0
-0.053193 -0.008662 0
-0.049909 -0.009756 0
-0.046262 -0.010661 0
-0.042320 -0.011350 0
-0.038161 -0.011798 0
-0.033868 -0.011988 0
-0.029530 -0.011908 0
-0.025238 -0.011559 0
-0.021083 -0.010948 0
-0.017151 -0.010092 0
-0.013521 -0.009020 0
-0.010264 -0.007771 0
-0.007434 -0.006392 0
-0.005069 -0.004945 0
-0.003188 -0.003503 0
-0.001786 -0.002149 0
-0.000835 -0.000988 0
-0.000279 -0.000140 0
-0.000036 0.000250 0
0.000000 0.000000 0
0.000000 -0.000000 0
-0.000351 0.001284 0
-0.001357 0.002993 0
-0.002975 0.004879 0
-0.005157 0.006766 0
-0.007849 0.008539 0
-0.010991 0.010126 0
-0.014519 0.011486 0
-0.018368 0.012603 0
-0.022469 0.013473 0
-0.026758 0.014101 0
-0.031170 0.014498 0
-0.035642 0.014672 0
-0.040114 0.014635 0
-0.044526 0.014393 0
-0.048819 0.013954 0
-0.052939 0.013322 0
-0.056828 0.012499 0
-0.060432 0.011491 0
-0.063699 0.010300 0
-0.066578 0.008933 0
-0.069019 0.007400 0
-0.070979 0.005712 0
-0.072416 0.003887 0
-0.073297 0.001948 0
-0.073593 -0.000078 0
-0.073286 -0.002159 0
-0.072367 -0.004257 0
-0.070836 -0.006331 0
-0.068707 -0.008337 0
-0.066004 -0.010226 0
-0.062766 -0.011952 0
-0.059042 -0.013468 0
-0.054896 -0.014729 0
-0.050403 -0.015698 0
-0.045646 -0.016341 0
-0.040719 -0.016634 0
-0.035719 -0.016563 0
-0.030750 -0.016126 0
-0.025912 -0.015332 0
-0.021304 -0.014205 0
-0.017017 -0.012782 0
-0.013132 -0.011114 0
-0.009713 -0.009266 0
-0.006808 -0.007317 0
-0.004445 -0.005362 0
-0.002627 -0.003510 0
-0.001332 -0.001888 0
-0.000514 -0.000644 0
-0.000101 0.000053 0
0.000000 0.000000 0
0.000000 -0.000000 0
-0.000446 0.002047 0
-0.001690 0.004454 0
-0.003655 0.006974 0
-0.006263 0.009432 0
-0.009438 0.011710 0
-0.013103 0.013732 0
-0.017183 0.015458 0
-0.021601 0.016870 0
-0.026285 0.017965 0
-0.031161 0.018751 0
-0.036161 0.019238 0
-0.041215 0.019439 0
-0.046259 0.019365 0
-0.051228 0.019026 0
-0.056059 0.018429 0
-0.060691 0.017580 0
-0.065063 0.016483 0
-0.069116 0.015144 0
-0.072792 0.013568 0
-0.076036 0.011763 0
-0.078794 0.009743 0
-0.081017 0.007525 0
-0.082662 0.005130 0
-0.083690 0.002588 0
-0.084070 -0.000065 0
-0.083782 -0.002789 0
-0.082814 -0.005535 0
-0.081165 -0.008249 0
-0.078847 -0.010876 0
-0.075887 -0.013355 0
-0.072322 -0.015624 0
-0.068205 -0.017625 0
-0.063603 -0.019301 0
-0.058596 -0.020601 0
-0.053274 -0.021482 0
-0.047737 -0.021914 0
-0.042093 -0.021877 0
-0.036454 -0.021367 0
-0.030934 -0.020394 0
-0.025643 -0.018987 0
-0.020684 -0.017193 0
-0.016149 -0.015075 0
-0.012116 -0.012715 0
-0.008644 -0.010213 0
-0.005772 -0.007684 0
-0.003511 -0.005263 0
-0.001852 -0.003101 0
-0.000757 -0.001371 0
-0.000166 -0.000264 0
0.000000 0.000000 0
0.000000 -0.000000 0
-0.000535 0.002974 0
-0.002011 0.006204 0
-0.004314 0.009452 0
-0.007339 0.012549 0
-0.010987 0.015379 0
-0.015164 0.017870 0
-0.019782 0.019984 0
-0.024756 0.021705 0
-0.030003 0.023033 0
-0.035447 0.023977 0
-0.041011 0.024552 0
-0.046625 0.024770 0
-0.052217 0.024647 0
-0.057721 0.024193 0
-0.063068 0.023417 0
-0.068194 0.022326 0
-0.073035 0.020924 0
-0.077526 0.019220 0
-0.081606 0.017219 0
-0.085215 0.014934 0
-0.088297 0.012381 0
-0.090799 0.009580 0
-0.092672 0.006560 0
-0.093875 0.003357 0
-0.094374 0.000015 0
-0.094143 -0.003415 0
-0.093169 -0.006875 0
-0.091448 -0.010298 0
-0.088989 -0.013615 0
-0.085818 -0.016752 0
-0.081972 -0.019634 0
-0.077504 -0.022186 0
-0.072484 -0.024338 0
-0.066993 -0.026028 0
-0.061127 -0.027200 0
-0.054995 -0.027815 0
-0.048713 -0.027845 0
-0.042402 -0.027284 0
-0.036188 -0.026143 0
-0.030194 -0.024456 0
-0.024536 -0.022276 0
-0.019322 -0.019681 0
-0.014643 -0.016770 0
-0.010572 -0.013661 0
-0.007160 -0.010495 0
-0.004432 -0.007429 0
-0.002389 -0.004642 0
-0.001005 -0.002329 0
-0.000231 -0.000704 0
0.000000 0.000000 0
0.000000 0.000000 0
-0.000620 0.004059 0
-0.002318 0.008234 0
-0.004946 0.012302 0
-0.008374 0.016104 0
-0.012481 0.019534 0
-0.017155 0.022527 0
-0.022295 0.025049 0
-0.027806 0.027091 0
-0.033599 0.028656 0
-0.039590 0.029759 0
-0.045699 0.030416 0
-0.051852 0.030645 0
-0.057973 0.030461 0
-0.063993 0.029877 0
-0.069841 0.028903 0
-0.075450 0.027546 0
-0.080750 0.025815 0
-0.085677 0.023715 0
-0.090164 0.021257 0
-0.094148 0.018455 0
-0.097570 0.015327 0
-0.100372 0.011899 0
-0.102502 0.008206 0
-0.103915 0.004290 0
-0.104573 0.000203 0
-0.104445 -0.003994 0
-0.103513 -0.008230 0
-0.101771 -0.012429 0
-0.099222 -0.016506 0
-0.095890 -0.020372 0
-0.091809 -0.023938 0
-0.087032 -0.027113 0
-0.081627 -0.029812 0
-0.075679 -0.031957 0
-0.069289 -0.033480 0
-0.062570 -0.034329 0
-0.055646 -0.034471 0
-0.048651 -0.033891 0
-0.041722 -0.032602 0
-0.034996 -0.030639 0
-0.028606 -0.028064 0
-0.022675 -0.024968 0
-0.017311 -0.021465 0
-0.012603 -0.017696 0
-0.008616 -0.013824 0
-0.005392 -0.010034 0
-0.002943 -0.006528 0
-0.001258 -0.003528 0
-0.000296 -0.001269 0
0.000000 0.000000 0
0.000000 0.000000 0
-0.000701 0.005293 0
-0.002609 0.010530 0
-0.005548 0.015508 0
-0.009362 0.020082 0
-0.013908 0.024159 0
-0.019060 0.027684 0
-0.024703 0.030635 0
-0.030731 0.033008 0
-0.037049 0.034816 0
-0.043567 0.036078 0
-0.050202 0.036813 0
-0.056874 0.037044 0
-0.063508 0.036789 0
-0.070029 0.036062 0
-0.076367 0.034874 0
-0.082449 0.033234 0
-0.088207 0.031151 0
-0.093571 0.028633 0
-0.098474 0.025691 0
-0.102848 0.022340 0
-0.106631 0.018604 0
-0.109762 0.014512 0
-0.112185 0.010104 0
-0.113850 0.005428 0
-0.114713 0.000545 0
-0.114739 -0.004474 0
-0.113904 -0.009549 0
-0.112195 -0.014589 0
-0.109613 -0.019496 0
-0.106173 -0.024166 0
-0.101906 -0.028492 0
-0.096863 -0.032368 0
-0.091110 -0.035691 0
-0.084733 -0.038366 0
-0.077833 -0.040310 0
-0.070532 -0.041458 0
-0.062961 -0.041764 0
-0.055264 -0.041208 0
-0.047593 -0.039798 0
-0.040101 -0.037571 0
-0.032937 -0.034597 0
-0.026244 -0.030977 0
-0.020148 -0.026843 0
-0.014757 -0.022357 0
-0.010156 -0.017706 0
-0.006402 -0.013102 0
-0.003523 -0.008776 0
-0.001519 -0.004976 0
-0.000362 -0.001962 0
0.000000 0.000000 0
0.000000 0.000000 0
-0.000777 0.006668 0
-0.002883 0.013081 0
-0.006117 0.019055 0
-0.010296 0.024464 0
-0.015261 0.029233 0
-0.020869 0.033321 0
-0.026991 0.036720 0
-0.033514 0.039437 0
-0.040334 0.041492 0
-0.047358 0.042912 0
-0.054497 0.043723 0
-0.061670 0.043951 0
-0.068799 0.043616 0
-0.075809 0.042736 0
-0.082625 0.041323 0
-0.089177 0.039386 0
-0.095392 0.036936 0
-0.101199 0.033981 0
-0.106529 0.030534 0
-0.111312 0.026612 0
-0.115483 0.022241 0
-0.118976 0.017454 0
-0.121731 0.012294 0
-0.123694 0.006818 0
-0.124813 0.001092 0
-0.125050 -0.004802 0
-0.124371 -0.010774 0
-0.122757 -0.016720 0
-0.120201 -0.022528 0
-0.116712 -0.028079 0
-0.112315 -0.033248 0
-0.107054 -0.037909 0
-0.100993 -0.041942 0
-0.094215 -0.045233 0
-0.086826 -0.047680 0
-0.078948 -0.049202 0
-0.070724 -0.049738 0
-0.062307 -0.049259 0
-0.053864 -0.047765 0
-0.045565 -0.045295 0
-0.037580 -0.041921 0
-0.030072 -0.037758 0
-0.023191 -0.032952 0
-0.017066 -0.027688 0
-0.011803 -0.022179 0
-0.007479 -0.016667 0
-0.004139 -0.011411 0
-0.001795 -0.006689 0
-0.000431 -0.002788 0
0.000000 0.000000 0
0.000000 0.000000 0
-0.000848 0.008176 0
-0.003140 0.015870 0
-0.006648 0.022921 0
-0.011172 0.029227 0
-0.016531 0.034731 0
-0.022568 0.039414 0
-0.029144 0.043280 0
-0.036135 0.046352 0
-0.043433 0.048660 0
-0.050938 0.050240 0
-0.058560 0.051126 0
-0.066214 0.051347 0
-0.073820 0.050928 0
-0.081304 0.049888 0
-0.088590 0.048242 0
-0.095605 0.046001 0
-0.102278 0.043173 0
-0.108535 0.039770 0
-0.114305 0.035804 0
-0.119518 0.031295 0
-0.124104 0.026268 0
-0.127994 0.020761 0
-0.131125 0.014821 0
-0.133434 0.008510 0
-0.134866 0.001901 0
-0.135373 -0.004917 0
-0.134915 -0.011842 0
-0.133462 -0.018759 0
-0.131000 -0.025541 0
-0.127527 -0.032052 0
-0.123060 -0.038150 0
-0.117637 -0.043690 0
-0.111314 -0.048530 0
-0.104173 -0.052532 0
-0.096317 -0.055577 0
-0.087875 -0.057560 0
-0.078993 -0.058405 0
-0.069839 -0.058068 0
-0.060593 -0.056540 0
-0.051445 -0.053855 0
-0.042588 -0.050090 0
-0.034208 -0.045366 0
-0.026481 -0.039849 0
-0.019563 -0.033744 0
-0.013583 -0.027293 0
-0.008641 -0.020766 0
-0.004801 -0.014460 0
-0.002092 -0.008684 0
-0.000505 -0.003757 0
0.000000 0.000000 0
0.000000 0.000000 0
-0.000913 0.009807 0
-0.003377 0.018881 0
-0.007141 0.027087 0
-0.011983 0.034347 0
-0.017709 0.040629 0
-0.024147 0.045934 0
-0.031147 0.050288 0
-0.038578 0.053726 0
-0.046325 0.056295 0
-0.054284 0.058038 0
-0.062363 0.058999 0
-0.070475 0.059212 0
-0.078541 0.058707 0
-0.086482 0.057505 0
-0.094226 0.055624 0
-0.101699 0.053074 0
-0.108828 0.049866 0
-0.115541 0.046009 0
-0.121765 0.041518 0
-0.127427 0.036411 0
-0.132455 0.030717 0
-0.136778 0.024474 0
-0.140326 0.017733 0
-0.143032 0.010559 0
-0.144834 0.003031 0
-0.145674 -0.004754 0
-0.145505 -0.012685 0
-0.144285 -0.020635 0
-0.141989 -0.028464 0
-0.138605 -0.036019 0
-0.134138 -0.043138 0
-0.128615 -0.049656 0
-0.122087 -0.055406 0
-0.114628 -0.060229 0
-0.106340 -0.063978 0
-0.097352 -0.066526 0
-0.087816 -0.067774 0
-0.077912 -0.067659 0
-0.067836 -0.066159 0
-0.057798 -0.063300 0
-0.048015 -0.059158 0
-0.038702 -0.053864 0
-0.030064 -0.047597 0
-0.022286 -0.040586 0
-0.015527 -0.033101 0
-0.009911 -0.025449 0
-0.005525 -0.017960 0
-0.002415 -0.010985 0
-0.000585 -0.004880 0
0.000000 -0.000000 0
0.000000 -0.000000 0
-0.000973 0.011552 0
-0.003593 0.022097 0
-0.007590 0.031528 0
-0.012725 0.039795 0
-0.018787 0.046895 0
-0.025594 0.052852 0
-0.032985 0.057711 0
-0.040824 0.061530 0
-0.048988 0.064367 0
-0.057371 0.066278 0
-0.065879 0.067317 0
-0.074423 0.067524 0
-0.082924 0.066935 0
-0.091305 0.065574 0
-0.099492 0.063459 0
-0.107412 0.060602 0
-0.114994 0.057015 0
-0.122164 0.052706 0
-0.128850 0.047690 0
-0.134978 0.041985 0
-0.140474 0.035619 0
-0.145262 0.028632 0
-0.149268 0.021076 0
-0.152421 0.013018 0
-0.154649 0.004544 0
-0.155888 -0.004246 0
-0.156077 -0.013231 0
-0.155165 -0.022274 0
-0.153114 -0.031221 0
-0.149898 -0.039903 0
-0.145509 -0.048139 0
-0.139963 -0.055741 0
-0.133297 -0.062517 0
-0.125579 -0.068279 0
-0.116904 -0.072854 0
-0.107400 -0.076084 0
-0.097225 -0.077845 0
-0.086568 -0.078048 0
-0.075640 -0.076654 0
-0.064674 -0.073676 0
-0.053914 -0.069185 0
-0.043605 -0.063317 0
-0.033985 -0.056265 0
-0.025274 -0.048282 0
-0.017664 -0.039668 0
-0.011310 -0.030768 0
-0.006324 -0.021956 0
-0.002773 -0.013623 0
-0.000675 -0.006172 0
0.000000 -0.000000 0
0.000000 -0.000000 0
-0.001027 0.013400 0
-0.003787 0.025498 0
-0.007993 0.036219 0
-0.013391 0.045544 0
-0.019757 0.053497 0
-0.026897 0.060132 0
-0.034644 0.065517 0
-0.042853 0.069729 0
-0.051399 0.072843 0
-0.060172 0.074929 0
-0.069075 0.076050 0
-0.078022 0.076257 0
-0.086931 0.075588 0
-0.095727 0.074073 0
-0.104337 0.071731 0
-0.112690 0.068576 0
-0.120715 0.064618 0
-0.128340 0.059866 0
-0.135492 0.054332 0
-0.142097 0.048034 0
-0.148078 0.041000 0
-0.153359 0.033269 0
-0.157861 0.024892 0
-0.161505 0.015940 0
-0.164214 0.006498 0
-0.165914 -0.003326 0
-0.166533 -0.013407 0
-0.166007 -0.023598 0
-0.164284 -0.033731 0
-0.161322 -0.043623 0
-0.157099 -0.053073 0
-0.151615 -0.061868 0
-0.144892 -0.069791 0
-0.136987 -0.076623 0
-0.127986 -0.082157 0
-0.118013 -0.086205 0
-0.107228 -0.088606 0
-0.095826 -0.089244 0
-0.084037 -0.088052 0
-0.072113 -0.085026 0
-0.060327 -0.080228 0
-0.048959 -0.073793 0
-0.038285 -0.065927 0
-0.028564 -0.056907 0
-0.020025 -0.047066 0
-0.012860 -0.036789 0
-0.007212 -0.026497 0
-0.003172 -0.016635 0
-0.000775 -0.007653 0
0.000000 -0.000000 0
0.000000 -0.000000 0
-0.001073 0.015339 0
-0.003956 0.029064 0
-0.008346 0.041132 0
-0.013975 0.051559 0
-0.020609 0.060401 0
-0.028044 0.067739 0
-0.036107 0.073667 0
-0.044647 0.078285 0
-0.053534 0.081686 0
-0.062658 0.083955 0
-0.071921 0.085167 0
-0.081234 0.085380 0
-0.090518 0.084640 0
-0.099699 0.082980 0
-0.108707 0.080422 0
-0.117471 0.076980 0
-0.125922 0.072665 0
-0.133990 0.067483 0
-0.141603 0.061447 0
-0.148688 0.054571 0
-0.155166 0.046881 0
-0.160960 0.038414 0
-0.165986 0.029222 0
-0.170161 0.019372 0
-0.173400 0.008952 0
-0.175620 -0.001928 0
-0.176737 -0.013138 0
-0.176675 -0.024523 0
-0.175366 -0.035906 0
-0.172751 -0.047087 0
-0.168791 -0.057847 0
-0.163465 -0.067948 0
-0.156781 -0.077145 0
-0.148778 -0.085186 0
-0.139530 -0.091828 0
-0.129153 -0.096842 0
-0.117806 -0.100031 0
-0.105688 -0.101239 0
-0.093041 -0.100368 0
-0.080141 -0.097385 0
-0.067290 -0.092339 0
-0.054806 -0.085359 0
-0.043005 -0.076661 0
-0.032192 -0.066542 0
-0.022641 -0.055372 0
-0.014585 -0.043581 0
-0.008204 -0.031644 0
-0.003620 -0.020061 0
-0.000888 -0.009344 0
0.000000 -0.000000 0
0.000000 0.000000 0
-0.001113 0.017356 0
-0.004099 0.032771 0
-0.008645 0.046237 0
-0.014472 0.057806 0
-0.021335 0.067567 0
-0.029025 0.075631 0
-0.037360 0.082120 0
-0.046186 0.087156 0
-0.055372 0.090854 0
-0.064803 0.093315 0
-0.074381 0.094626 0
-0.084019 0.094854 0
-0.093640 0.094054 0
-0.103169 0.092262 0
-0.112539 0.089503 0
-0.121684 0.085791 0
-0.130535 0.081137 0
-0.139026 0.075547 0
-0.147087 0.069029 0
-0.154643 0.061597 0
-0.161619 0.053272 0
-0.167934 0.044088 0
-0.173503 0.034094 0
-0.178238 0.023354 0
-0.182048 0.011957 0
-0.184839 0.000011 0
-0.186519 -0.012351 0
-0.186997 -0.024969 0
-0.186188 -0.037656 0
-0.184016 -0.050198 0
-0.180422 -0.062359 0
-0.175364 -0.073877 0
-0.168829 -0.084478 0
-0.160835 -0.093874 0
-0.151441 -0.101782 0
-0.140748 -0.107929 0
-0.128908 -0.112072 0
-0.116122 -0.114009 0
-0.102643 -0.113599 0
-0.088766 -0.110776 0
-0.074824 -0.105563 0
-0.061173 -0.098078 0
-0.048176 -0.088542 0
-0.036189 -0.077271 0
-0.025538 -0.064672 0
-0.016505 -0.051225 0
-0.009315 -0.037462 0
-0.004124 -0.023951 0
-0.001016 -0.011273 0
0.000000 -0.000000 0
0.000000 0.000000 0
-0.001144 0.019438 0
-0.004215 0.036596 0
-0.008888 0.051504 0
-0.014875 0.064248 0
-0.021927 0.074954 0
-0.029827 0.083764 0
-0.038388 0.090829 0
-0.047454 0.096297 0
-0.056889 0.100302 0
-0.066578 0.102964 0
-0.076424 0.104383 0
-0.086339 0.104638 0
-0.096248 0.103789 0
-0.106081 0.101880 0
-0.115771 0.098937 0