# vtk DataFile Version 2.0
generated by CFD-lab course output (written by Tobias Neckel) 
ASCII

DATASET STRUCTURED_GRID
DIMENSIONS  51 51 1 
POINTS 2601 float

0.000000 0.000000 0
0.020000 0.000000 0
0.040000 0.000000 0
0.060000 0.000000 0
0.080000 0.000000 0
0.100000 0.000000 0
0.120000 0.000000 0
0.140000 0.000000 0
0.160000 0.000000 0
0.180000 0.000000 0
0.200000 0.000000 0
0.220000 0.000000 0
0.240000 0.000000 0
0.260000 0.000000 0
0.280000 0.000000 0
0.300000 0.000000 0
0.320000 0.000000 0
0.340000 0.000000 0
0.360000 0.000000 0
0.380000 0.000000 0
0.400000 0.000000 0
0.420000 0.000000 0
0.440000 0.000000 0
0.460000 0.000000 0
0.480000 0.000000 0
0.500000 0.000000 0
0.520000 0.000000 0
0.540000 0.000000 0
0.560000 0.000000 0
0.580000 0.000000 0
0.600000 0.000000 0
0.620000 0.000000 0
0.640000 0.000000 0
0.660000 0.000000 0
0.680000 0.000000 0
0.700000 0.000000 0
0.720000 0.000000 0
0.740000 0.000000 0
0.760000 0.000000 0
0.780000 0.000000 0
0.800000 0.000000 0
0.820000 0.000000 0
0.840000 0.000000 0
0.860000 0.000000 0
0.880000 0.000000 0
0.900000 0.000000 0
0.920000 0.000000 0
0.940000 0.000000 0
0.960000 0.000000 0
0.980000 0.000000 0
1.000000 0.000000 0
0.000000 0.020000 0
0.020000 0.020000 0
0.040000 0.020000 0
0.060000 0.020000 0
0.080000 0.020000 0
0.100000 0.020000 0
0.120000 0.020000 0
0.140000 0.020000 0
0.160000 0.020000 0
0.180000 0.020000 0
0.200000 0.020000 0
0.220000 0.020000 0
0.240000 0.020000 0
0.260000 0.020000 0
0.280000 0.020000 0
0.300000 0.020000 0
0.320000 0.020000 0
0.340000 0.020000 0
0.360000 0.020000 0
0.380000 0.020000 0
0.400000 0.020000 0
0.420000 0.020000 0
0.440000 0.020000 0
0.460000 0.020000 0
0.480000 0.020000 0
0.500000 0.020000 0
0.520000 0.020000 0
0.540000 0.020000 0
0.560000 0.020000 0
0.580000 0.020000 0
0.600000 0.020000 0
0.620000 0.020000 0
0.640000 0.020000 0
0.660000 0.020000 0
0.680000 0.020000 0
0.700000 0.020000 0
0.720000 0.020000 0
0.740000 0.020000 0
0.760000 0.020000 0
0.780000 0.020000 0
0.800000 0.020000 0
0.820000 0.020000 0
0.840000 0.020000 0
0.860000 0.020000 0
0.880000 0.020000 0
0.900000 0.020000 0
0.920000 0.020000 0
0.940000 0.020000 0
0.960000 0.020000 0
0.980000 0.020000 0
1.000000 0.020000 0
0.000000 0.040000 0
0.020000 0.040000 0
0.040000 0.040000 0
0.060000 0.040000 0
0.080000 0.040000 0
0.100000 0.040000 0
0.120000 0.040000 0
0.140000 0.040000 0
0.160000 0.040000 0
0.180000 0.040000 0
0.200000 0.040000 0
0.220000 0.040000 0
0.240000 0.040000 0
0.260000 0.040000 0
0.280000 0.040000 0
0.300000 0.040000 0
0.320000 0.040000 0
0.340000 0.040000 0
0.360000 0.040000 0
0.380000 0.040000 0
0.400000 0.040000 0
0.420000 0.040000 0
0.440000 0.040000 0
0.460000 0.040000 0
0.480000 0.040000 0
0.500000 0.040000 0
0.520000 0.040000 0
0.540000 0.040000 0
0.560000 0.040000 0
0.580000 0.040000 0
0.600000 0.040000 0
0.620000 0.040000 0
0.640000 0.040000 0
0.660000 0.040000 0
0.680000 0.040000 0
0.700000 0.040000 0
0.720000 0.040000 0
0.740000 0.040000 0
0.760000 0.040000 0
0.780000 0.040000 0
0.800000 0.040000 0
0.820000 0.040000 0
0.840000 0.040000 0
0.860000 0.040000 0
0.880000 0.040000 0
0.900000 0.040000 0
0.920000 0.040000 0
0.940000 0.040000 0
0.960000 0.040000 0
0.980000 0.040000 0
1.000000 0.040000 0
0.000000 0.060000 0
0.020000 0.060000 0
0.040000 0.060000 0
0.060000 0.060000 0
0.080000 0.060000 0
0.100000 0.060000 0
0.120000 0.060000 0
0.140000 0.060000 0
0.160000 0.060000 0
0.180000 0.060000 0
0.200000 0.060000 0
0.220000 0.060000 0
0.240000 0.060000 0
0.260000 0.060000 0
0.280000 0.060000 0
0.300000 0.060000 0
0.320000 0.060000 0
0.340000 0.060000 0
0.360000 0.060000 0
0.380000 0.060000 0
0.400000 0.060000 0
0.420000 0.060000 0
0.440000 0.060000 0
0.460000 0.060000 0
0.480000 0.060000 0
0.500000 0.060000 0
0.520000 0.060000 0
0.540000 0.060000 0
0.560000 0.060000 0
0.580000 0.060000 0
0.600000 0.060000 0
0.620000 0.060000 0
0.640000 0.060000 0
0.660000 0.060000 0
0.680000 0.060000 0
0.700000 0.060000 0
0.720000 0.060000 0
0.740000 0.060000 0
0.760000 0.060000 0
0.780000 0.060000 0
0.800000 0.060000 0
0.820000 0.060000 0
0.840000 0.060000 0
0.860000 0.060000 0
0.880000 0.060000 0
0.900000 0.060000 0
0.920000 0.060000 0
0.940000 0.060000 0
0.960000 0.060000 0
0.980000 0.060000 0
1.000000 0.060000 0
0.000000 0.080000 0
0.020000 0.080000 0
0.040000 0.080000 0
0.060000 0.080000 0
0.080000 0.080000 0
0.100000 0.080000 0
0.120000 0.080000 0
0.140000 0.080000 0
0.160000 0.080000 0
0.180000 0.080000 0
0.200000 0.080000 0
0.220000 0.080000 0
0.240000 0.080000 0
0.260000 0.080000 0
0.280000 0.080000 0
0.300000 0.080000 0
0.320000 0.080000 0
0.340000 0.080000 0
0.360000 0.080000 0
0.380000 0.080000 0
0.400000 0.080000 0
0.420000 0.080000 0
0.440000 0.080000 0
0.460000 0.080000 0
0.480000 0.080000 0
0.500000 0.080000 0
0.520000 0.080000 0
0.540000 0.080000 0
0.560000 0.080000 0
0.580000 0.080000 0
0.600000 0.080000 0
0.620000 0.080000 0
0.640000 0.080000 0
0.660000 0.080000 0
0.680000 0.080000 0
0.700000 0.080000 0
0.720000 0.080000 0
0.740000 0.080000 0
0.760000 0.080000 0
0.780000 0.080000 0
0.800000 0.080000 0
0.820000 0.080000 0
0.840000 0.080000 0
0.860000 0.080000 0
0.880000 0.080000 0
0.900000 0.080000 0
0.920000 0.080000 0
0.940000 0.080000 0
0.960000 0.080000 0
0.980000 0.080000 0
1.000000 0.080000 0
0.000000 0.100000 0
0.020000 0.100000 0
0.040000 0.100000 0
0.060000 0.100000 0
0.080000 0.100000 0
0.100000 0.100000 0
0.120000 0.100000 0
0.140000 0.100000 0
0.160000 0.100000 0
0.180000 0.100000 0
0.200000 0.100000 0
0.220000 0.100000 0
0.240000 0.100000 0
0.260000 0.100000 0
0.280000 0.100000 0
0.300000 0.100000 0
0.320000 0.100000 0
0.340000 0.100000 0
0.360000 0.100000 0
0.380000 0.100000 0
0.400000 0.100000 0
0.420000 0.100000 0
0.440000 0.100000 0
0.460000 0.100000 0
0.480000 0.100000 0
0.500000 0.100000 0
0.520000 0.100000 0
0.540000 0.100000 0
0.560000 0.100000 0
0.580000 0.100000 0
0.600000 0.100000 0
0.620000 0.100000 0
0.640000 0.100000 0
0.660000 0.100000 0
0.680000 0.100000 0
0.700000 0.100000 0
0.720000 0.100000 0
0.740000 0.100000 0
0.760000 0.100000 0
0.780000 0.100000 0
0.800000 0.100000 0
0.820000 0.100000 0
0.840000 0.100000 0
0.860000 0.100000 0
0.880000 0.100000 0
0.900000 0.100000 0
0.920000 0.100000 0
0.940000 0.100000 0
0.960000 0.100000 0
0.980000 0.100000 0
1.000000 0.100000 0
0.000000 0.120000 0
0.020000 0.120000 0
0.040000 0.120000 0
0.060000 0.120000 0
0.080000 0.120000 0
0.100000 0.120000 0
0.120000 0.120000 0
0.140000 0.120000 0
0.160000 0.120000 0
0.180000 0.120000 0
0.200000 0.120000 0
0.220000 0.120000 0
0.240000 0.120000 0
0.260000 0.120000 0
0.280000 0.120000 0
0.300000 0.120000 0
0.320000 0.120000 0
0.340000 0.120000 0
0.360000 0.120000 0
0.380000 0.120000 0
0.400000 0.120000 0
0.420000 0.120000 0
0.440000 0.120000 0
0.460000 0.120000 0
0.480000 0.120000 0
0.500000 0.120000 0
0.520000 0.120000 0
0.540000 0.120000 0
0.560000 0.120000 0
0.580000 0.120000 0
0.600000 0.120000 0
0.620000 0.120000 0
0.640000 0.120000 0
0.660000 0.120000 0
0.680000 0.120000 0
0.700000 0.120000 0
0.720000 0.120000 0
0.740000 0.120000 0
0.760000 0.120000 0
0.780000 0.120000 0
0.800000 0.120000 0
0.820000 0.120000 0
0.840000 0.120000 0
0.860000 0.120000 0
0.880000 0.120000 0
0.900000 0.120000 0
0.920000 0.120000 0
0.940000 0.120000 0
0.960000 0.120000 0
0.980000 0.120000 0
1.000000 0.120000 0
0.000000 0.140000 0
0.020000 0.140000 0
0.040000 0.140000 0
0.060000 0.140000 0
0.080000 0.140000 0
0.100000 0.140000 0
0.120000 0.140000 0
0.140000 0.140000 0
0.160000 0.140000 0
0.180000 0.140000 0
0.200000 0.140000 0
0.220000 0.140000 0
0.240000 0.140000 0
0.260000 0.140000 0
0.280000 0.140000 0
0.300000 0.140000 0
0.320000 0.140000 0
0.340000 0.140000 0
0.360000 0.140000 0
0.380000 0.140000 0
0.400000 0.140000 0
0.420000 0.140000 0
0.440000 0.140000 0
0.460000 0.140000 0
0.480000 0.140000 0
0.500000 0.140000 0
0.520000 0.140000 0
0.540000 0.140000 0
0.560000 0.140000 0
0.580000 0.140000 0
0.600000 0.140000 0
0.620000 0.140000 0
0.640000 0.140000 0
0.660000 0.140000 0
0.680000 0.140000 0
0.700000 0.140000 0
0.720000 0.140000 0
0.740000 0.140000 0
0.760000 0.140000 0
0.780000 0.140000 0
0.800000 0.140000 0
0.820000 0.140000 0
0.840000 0.140000 0
0.860000 0.140000 0
0.880000 0.140000 0
0.900000 0.140000 0
0.920000 0.140000 0
0.940000 0.140000 0
0.960000 0.140000 0
0.980000 0.140000 0
1.000000 0.140000 0
0.000000 0.160000 0
0.020000 0.160000 0
0.040000 0.160000 0
0.060000 0.160000 0
0.080000 0.160000 0
0.100000 0.160000 0
0.120000 0.160000 0
0.140000 0.160000 0
0.160000 0.160000 0
0.180000 0.160000 0
0.200000 0.160000 0
0.220000 0.160000 0
0.240000 0.160000 0
0.260000 0.160000 0
0.280000 0.160000 0
0.300000 0.160000 0
0.320000 0.160000 0
0.340000 0.160000 0
0.360000 0.160000 0
0.380000 0.160000 0
0.400000 0.160000 0
0.420000 0.160000 0
0.440000 0.160000 0
0.460000 0.160000 0
0.480000 0.160000 0
0.500000 0.160000 0
0.520000 0.160000 0
0.540000 0.160000 0
0.560000 0.160000 0
0.580000 0.160000 0
0.600000 0.160000 0
0.620000 0.160000 0
0.640000 0.160000 0
0.660000 0.160000 0
0.680000 0.160000 0
0.700000 0.160000 0
0.720000 0.160000 0
0.740000 0.160000 0
0.760000 0.160000 0
0.780000 0.160000 0
0.800000 0.160000 0
0.820000 0.160000 0
0.840000 0.160000 0
0.860000 0.160000 0
0.880000 0.160000 0
0.900000 0.160000 0
0.920000 0.160000 0
0.940000 0.160000 0
0.960000 0.160000 0
0.980000 0.160000 0
1.000000 0.160000 0
0.000000 0.180000 0
0.020000 0.180000 0
0.040000 0.180000 0
0.060000 0.180000 0
0.080000 0.180000 0
0.100000 0.180000 0
0.120000 0.180000 0
0.140000 0.180000 0
0.160000 0.180000 0
0.180000 0.180000 0
0.200000 0.180000 0
0.220000 0.180000 0
0.240000 0.180000 0
0.260000 0.180000 0
0.280000 0.180000 0
0.300000 0.180000 0
0.320000 0.180000 0
0.340000 0.180000 0
0.360000 0.180000 0
0.380000 0.180000 0
0.400000 0.180000 0
0.420000 0.180000 0
0.440000 0.180000 0
0.460000 0.180000 0
0.480000 0.180000 0
0.500000 0.180000 0
0.520000 0.180000 0
0.540000 0.180000 0
0.560000 0.180000 0
0.580000 0.180000 0
0.600000 0.180000 0
0.620000 0.180000 0
[...]
POINT_DATA 2601 

VECTORS velocity float
0.000000 0.000000 0
-0.000001 0.000000 0
-0.000001 0.000000 0
-0.000000 0.000000 0
-0.000000 0.000000 0
0.000000 0.000000 0
0.000000 0.000000 0
0.000000 0.000000 0
0.000000 0.000000 0
-0.000000 0.000000 0
-0.000000 0.000000 0
-0.000000 0.000000 0
-0.000000 0.000000 0
-0.000000 0.000000 0
-0.000000 0.000000 0
-0.000000 0.000000 0
-0.000000 0.000000 0
-0.000000 0.000000 0
-0.000000 0.000000 0
-0.000000 0.000000 0
-0.000000 0.000000 0
-0.000000 0.000000 0
-0.000000 0.000000 0
-0.000000 0.000000 0
-0.000000 0.000000 0
-0.000000 0.000000 0
-0.000000 0.000000 0
-0.000000 0.000000 0
-0.000000 0.000000 0
-0.000000 0.000000 0
-0.000000 0.000000 0
-0.000000 0.000000 0
-0.000000 0.000000 0
-0.000000 0.000000 0
-0.000000 0.000000 0
-0.000000 0.000000 0
-0.000000 0.000000 0
-0.000000 0.000000 0
-0.000000 0.000000 0
-0.000000 0.000000 0
0.000000 0.000000 0
0.000000 0.000000 0
0.000000 0.000000 0
0.000000 0.000000 0
0.000000 0.000000 0
0.000000 0.000000 0
0.000000 0.000000 0
0.000000 0.000000 0
0.000000 0.000000 0
0.000000 0.000000 0
0.000000 0.000000 0
0.000000 -0.000001 0
0.000058 -0.000059 0
0.000078 -0.000022 0
-0.000018 0.000055 0
-0.000257 0.000143 0
-0.000642 0.000226 0
-0.001161 0.000298 0
-0.001796 0.000359 0
-0.002528 0.000406 0
-0.003335 0.000443 0
-0.004199 0.000469 0
-0.005103 0.000486 0
-0.006030 0.000495 0
-0.006965 0.000496 0
-0.007896 0.000491 0
-0.008810 0.000479 0
-0.009693 0.000460 0
-0.010533 0.000435 0
-0.011319 0.000404 0
-0.012038 0.000366 0
-0.012677 0.000322 0
-0.013225 0.000271 0
-0.013671 0.000213 0
-0.014003 0.000150 0
-0.014211 0.000082 0
-0.014288 0.000009 0
-0.014228 -0.000066 0
-0.014026 -0.000143 0
-0.013682 -0.000220 0
-0.013198 -0.000295 0
-0.012580 -0.000366 0
-0.011837 -0.000431 0
-0.010983 -0.000488 0
-0.010035 -0.000535 0
-0.009012 -0.000570 0
-0.007936 -0.000591 0
-0.006834 -0.000598 0
-0.005731 -0.000590 0
-0.004655 -0.000567 0
-0.003632 -0.000529 0
-0.002689 -0.000476 0
-0.001848 -0.000412 0
-0.001130 -0.000337 0
-0.000551 -0.000254 0
-0.000120 -0.000167 0
0.000159 -0.000081 0
0.000293 -0.000000 0
0.000298 0.000064 0
0.000208 0.000098 0
0.000081 0.000081 0
0.000000 -0.000000 0
0.000000 -0.000001 0
0.000022 -0.000079 0
-0.000077 0.000076 0
-0.000385 0.000335 0
-0.000937 0.000625 0
-0.001736 0.000905 0
-0.002765 0.001155 0
-0.003996 0.001367 0
-0.005396 0.001538 0
-0.006932 0.001671 0
-0.008571 0.001768 0
-0.010280 0.001831 0
-0.012032 0.001863 0
-0.013798 0.001867 0
-0.015553 0.001844 0
-0.017271 0.001796 0
-0.018930 0.001723 0
-0.020506 0.001626 0
-0.021975 0.001504 0
-0.023314 0.001358 0
-0.024502 0.001188 0
-0.025515 0.000994 0
-0.026333 0.000777 0
-0.026937 0.000540 0
-0.027310 0.000285 0
-0.027438 0.000016 0
-0.027311 -0.000263 0
-0.026922 -0.000546 0
-0.026272 -0.000828 0
-0.025366 -0.001102 0
-0.024214 -0.001360 0
-0.022836 -0.001596 0
-0.021254 -0.001802 0
-0.019499 -0.001972 0
-0.017607 -0.002099 0
-0.015619 -0.002178 0
-0.013580 -0.002205 0
-0.011536 -0.002179 0
-0.009536 -0.002099 0
-0.007628 -0.001966 0
-0.005856 -0.001784 0
-0.004263 -0.001559 0
-0.002884 -0.001298 0
-0.001745 -0.001011 0
-0.000865 -0.000710 0
-0.000248 -0.000412 0
0.000116 -0.000138 0
0.000256 0.000084 0
0.000224 0.000217 0
0.000100 0.000208 0
0.000000 -0.000000 0
0.000000 -0.000000 0
-0.000057 0.000018 0
-0.000348 0.000386 0
-0.000939 0.000916 0
-0.001857 0.001494 0
-0.003099 0.002053 0
-0.004642 0.002557 0
-0.006450 0.002989 0
-0.008481 0.003342 0
-0.010693 0.003617 0
-0.013041 0.003817 0
-0.015484 0.003947 0
-0.017982 0.004013 0
-0.020495 0.004017 0
-0.022989 0.003964 0
-0.025427 0.003856 0
-0.027776 0.003695 0
-0.030003 0.003480 0
-0.032074 0.003212 0
-0.033958 0.002893 0
-0.035623 0.002522 0
-0.037040 0.002102 0
-0.038178 0.001636 0
-0.039014 0.001127 0
-0.039523 0.000583 0
-0.039688 0.000010 0
-0.039496 -0.000582 0
-0.038941 -0.001182 0
-0.038021 -0.001777 0
-0.036746 -0.002353 0
-0.035131 -0.002897 0
-0.033202 -0.003392 0
-0.030991 -0.003825 0
-0.028540 -0.004182 0
-0.025898 -0.004450 0
-0.023119 -0.004619 0
-0.020264 -0.004682 0
-0.017396 -0.004634 0
-0.014581 -0.004475 0
-0.011882 -0.004208 0
-0.009360 -0.003841 0
-0.007071 -0.003384 0
-0.005063 -0.002855 0
-0.003373 -0.002273 0
-0.002023 -0.001665 0
-0.001022 -0.001062 0
-0.000359 -0.000504 0
0.000001 -0.000044 0
0.000116 0.000254 0
0.000074 0.000305 0
0.000000 0.000000 0
0.000000 0.000000 0
-0.000152 0.000270 0
-0.000668 0.000959 0
-0.001583 0.001845 0
-0.002901 0.002785 0
-0.004608 0.003688 0
-0.006670 0.004504 0
-0.009046 0.005205 0
-0.011685 0.005782 0
-0.014537 0.006231 0
-0.017549 0.006559 0
-0.020671 0.006771 0
-0.023854 0.006874 0
-0.027051 0.006874 0
-0.030216 0.006776 0
-0.033307 0.006584 0
-0.036279 0.006299 0
-0.039092 0.005924 0
-0.041704 0.005460 0
-0.044076 0.004907 0
-0.046168 0.004269 0
-0.047944 0.003549 0
-0.049367 0.002751 0
-0.050409 0.001885 0
-0.051040 0.000960 0
-0.051240 -0.000010 0
-0.050994 -0.001010 0
-0.050294 -0.002021 0
-0.049141 -0.003023 0
-0.047546 -0.003992 0
-0.045529 -0.004904 0
-0.043119 -0.005737 0
-0.040359 -0.006464 0
-0.037296 -0.007066 0
-0.033992 -0.007520 0
-0.030511 -0.007812 0
-0.026928 -0.007928 0
-0.023318 -0.007862 0
-0.019760 -0.007613 0
-0.016333 -0.007186 0
-0.013109 -0.006594 0
-0.010157 -0.005855 0
-0.007536 -0.004996 0
-0.005290 -0.004051 0
-0.003451 -0.003061 0
-0.002030 -0.002077 0
-0.001018 -0.001161 0
-0.000382 -0.000390 0
-0.000064 0.000144 0
0.000023 0.000324 0
0.000000 0.000000 0
0.000000 0.000001 0
-0.000250 0.000688 0
-0.001006 0.001817 0
-0.002262 0.003149 0
-0.003998 0.004518 0
-0.006182 0.005822 0
-0.008768 0.006995 0
-0.011705 0.008004 0
-0.014935 0.008833 0
-0.018401 0.009481 0
-0.022043 0.009951 0
-0.025803 0.010252 0
-0.029626 0.010392 0
-0.033456 0.010379 0
-0.037243 0.010220 0
-0.040933 0.009919 0
-0.044478 0.009480 0
-0.047829 0.008905 0
-0.050937 0.008196 0
-0.053756 0.007357 0
-0.056240 0.006390 0
-0.058347 0.005301 0
-0.060036 0.004101 0
-0.061271 0.002800 0
-0.062023 0.001414 0
-0.062266 -0.000036 0
-0.061983 -0.001528 0
-0.061167 -0.003034 0
-0.059818 -0.004525 0
-0.057948 -0.005966 0
-0.055581 -0.007323 0
-0.052751 -0.008562 0
-0.049503 -0.009648 0
-0.045896 -0.010549 0
-0.041995 -0.011235 0
-0.037877 -0.011683 0
-0.033625 -0.011875 0
-0.029327 -0.011801 0
-0.025073 -0.011460 0
-0.020953 -0.010859 0
-0.017053 -0.010016 0
-0.013451 -0.008957 0
-0.010217 -0.007722 0
-0.007406 -0.006358 0
-0.005055 -0.004925 0
-0.003183 -0.003495 0
-0.001787 -0.002152 0
-0.000837 -0.000997 0
-0.000281 -0.000152 0
-0.000038 0.000240 0
0.000000 0.000000 0
0.000000 0.000001 0
-0.000347 0.001276 0
-0.001343 0.002970 0
-0.002946 0.004837 0
-0.005105 0.006704 0
-0.007769 0.008458 0
-0.010878 0.010027 0
-0.014369 0.011373 0
-0.018177 0.012478 0
-0.022237 0.013339 0
-0.026481 0.013961 0
-0.030848 0.014353 0
-0.035275 0.014527 0
-0.039702 0.014491 0
-0.044070 0.014253 0
-0.048322 0.013819 0
-0.052402 0.013195 0
-0.056256 0.012383 0
-0.059829 0.011387 0
-0.063068 0.010210 0
-0.065924 0.008860 0
-0.068348 0.007344 0
-0.070295 0.005676 0
-0.071727 0.003872 0
-0.072607 0.001954 0
-0.072910 -0.000050 0
-0.072616 -0.002110 0
-0.071715 -0.004187 0
-0.070208 -0.006241 0
-0.068108 -0.008229 0
-0.065440 -0.010102 0
-0.062240 -0.011814 0
-0.058558 -0.013319 0
-0.054457 -0.014574 0
-0.050010 -0.015538 0
-0.045300 -0.016181 0
-0.040419 -0.016478 0
-0.035466 -0.016414 0
-0.030540 -0.015987 0
-0.025743 -0.015207 0
-0.021173 -0.014096 0
-0.016919 -0.012691 0
-0.013062 -0.011042 0
-0.009666 -0.009213 0
-0.006780 -0.007283 0
-0.004430 -0.005345 0
-0.002621 -0.003507 0
-0.001331 -0.001896 0
-0.000515 -0.000656 0
-0.000102 0.000043 0
0.000000 0.000000 0
0.000000 0.000000 0
-0.000440 0.002031 0
-0.001673 0.004415 0
-0.003617 0.006910 0
-0.006197 0.009342 0
-0.009338 0.011595 0
-0.012964 0.013596 0
-0.017000 0.015303 0
-0.021372 0.016700 0
-0.026006 0.017785 0
-0.030832 0.018563 0
-0.035780 0.019046 0
-0.040783 0.019246 0
-0.045777 0.019174 0
-0.050697 0.018840 0
-0.055482 0.018252 0
-0.060071 0.017414 0
-0.064404 0.016331 0
-0.068422 0.015009 0
-0.072068 0.013452 0
-0.075287 0.011669 0
-0.078026 0.009673 0
-0.080236 0.007480 0
-0.081875 0.005112 0
-0.082903 0.002598 0
-0.083292 -0.000028 0
-0.083018 -0.002723 0
-0.082070 -0.005442 0
-0.080447 -0.008131 0
-0.078162 -0.010734 0
-0.075239 -0.013192 0
-0.071716 -0.015444 0
-0.067645 -0.017431 0
-0.063092 -0.019097 0
-0.058135 -0.020392 0
-0.052865 -0.021273 0
-0.047380 -0.021709 0
-0.041787 -0.021681 0
-0.036198 -0.021183 0
-0.030725 -0.020227 0
-0.025476 -0.018840 0
-0.020555 -0.017069 0
-0.016054 -0.014975 0
-0.012050 -0.012640 0
-0.008601 -0.010161 0
-0.005746 -0.007654 0
-0.003498 -0.005251 0
-0.001847 -0.003104 0
-0.000756 -0.001381 0
-0.000166 -0.000274 0
0.000000 0.000000 0
0.000000 -0.000000 0
-0.000529 0.002948 0
-0.001989 0.006146 0
-0.004267 0.009361 0
-0.007259 0.012425 0
-0.010867 0.015225 0
-0.014999 0.017690 0
-0.019567 0.019781 0
-0.024488 0.021484 0
-0.029680 0.022799 0
-0.035067 0.023735 0
-0.040575 0.024305 0
-0.046132 0.024524 0
-0.051669 0.024405 0
-0.057119 0.023958 0
-0.062417 0.023193 0
-0.067496 0.022117 0
-0.072294 0.020734 0
-0.076747 0.019051 0
-0.080795 0.017075 0
-0.084378 0.014818 0
-0.087440 0.012294 0
-0.089928 0.009525 0
-0.091795 0.006539 0
-0.092999 0.003371 0
-0.093506 0.000064 0
-0.093290 -0.003332 0
-0.092338 -0.006757 0
-0.090645 -0.010149 0
-0.088221 -0.013437 0
-0.085090 -0.016548 0
-0.081288 -0.019408 0
-0.076870 -0.021943 0
-0.071902 -0.024083 0
-0.066466 -0.025766 0
-0.060657 -0.026937 0
-0.054581 -0.027555 0
-0.048355 -0.027596 0
-0.042098 -0.027050 0
-0.035936 -0.025929 0
-0.029990 -0.024266 0
-0.024376 -0.022113 0
-0.019201 -0.019548 0
-0.014556 -0.016666 0
-0.010513 -0.013587 0
-0.007122 -0.010448 0
-0.004410 -0.007406 0
-0.002378 -0.004638 0
-0.001001 -0.002336 0
-0.000231 -0.000713 0
0.000000 0.000000 0
0.000000 -0.000000 0
-0.000613 0.004020 0
-0.002292 0.008153 0
-0.004891 0.012179 0
-0.008281 0.015942 0
-0.012341 0.019335 0
-0.016965 0.022296 0
-0.022049 0.024792 0
-0.027502 0.026813 0
-0.033234 0.028364 0
-0.039163 0.029458 0
-0.045211 0.030111 0
-0.051302 0.030340 0
-0.057364 0.030162 0
-0.063327 0.029588 0
-0.069122 0.028628 0
-0.074680 0.027291 0
-0.079935 0.025582 0
-0.084822 0.023510 0
-0.089275 0.021083 0
-0.093231 0.018314 0
-0.096632 0.015223 0
-0.099420 0.011835 0
-0.101544 0.008183 0
-0.102958 0.004308 0
-0.103624 0.000264 0
-0.103512 -0.003891 0
-0.102603 -0.008087 0
-0.100889 -0.012248 0
-0.098377 -0.016290 0
-0.095086 -0.020125 0
-0.091052 -0.023664 0
-0.086327 -0.026818 0
-0.080977 -0.029501 0
-0.075088 -0.031637 0
-0.068757 -0.033158 0
-0.062099 -0.034011 0
-0.055235 -0.034164 0
-0.048299 -0.033602 0
-0.041427 -0.032335 0
-0.034755 -0.030400 0
-0.028414 -0.027857 0
-0.022528 -0.024795 0
-0.017202 -0.021328 0
-0.012526 -0.017595 0
-0.008566 -0.013756 0
-0.005362 -0.009995 0
-0.002928 -0.006513 0
-0.001252 -0.003529 0
-0.000295 -0.001276 0
0.000000 0.000000 0
0.000000 -0.000000 0
-0.000693 0.005240 0
-0.002579 0.010424 0
-0.005485 0.015350 0
-0.009256 0.019875 0
-0.013752 0.023909 0
-0.018848 0.027397 0
-0.024430 0.030318 0
-0.030394 0.032669 0
-0.036647 0.034460 0
-0.043098 0.035712 0
-0.049667 0.036444 0
-0.056274 0.036677 0
-0.062844 0.036430 0
-0.069306 0.035716 0
-0.075586 0.034546 0
-0.081616 0.032930 0
-0.087327 0.030875 0
-0.092649 0.028390 0
-0.097516 0.025485 0
-0.101862 0.022175 0
-0.105623 0.018483 0
-0.108740 0.014437 0
-0.111156 0.010077 0
-0.112821 0.005451 0
-0.113692 0.000618 0
-0.113734 -0.004353 0
-0.112922 -0.009380 0
-0.111243 -0.014375 0
-0.108697 -0.019240 0
-0.105300 -0.023873 0
-0.101082 -0.028168 0
-0.096092 -0.032018 0
-0.090396 -0.035322 0
-0.084079 -0.037985 0
-0.077243 -0.039926 0
-0.070005 -0.041078 0
-0.062499 -0.041395 0
-0.054866 -0.040858 0
-0.047256 -0.039474 0
-0.039822 -0.037278 0
-0.032713 -0.034340 0
-0.026069 -0.030760 0
-0.020017 -0.026668 0
-0.014664 -0.022223 0
-0.010094 -0.017612 0
-0.006364 -0.013044 0
-0.003503 -0.008748 0
-0.001511 -0.004969 0
-0.000360 -0.001965 0
0.000000 0.000000 0
0.000000 -0.000000 0
-0.000768 0.006600 0
-0.002850 0.012945 0
-0.006047 0.018856 0
-0.010179 0.024208 0
-0.015090 0.028927 0
-0.020636 0.032974 0
-0.026693 0.036339 0
-0.033148 0.039030 0
-0.039899 0.041068 0
-0.046852 0.042478 0
-0.053921 0.043286 0
-0.061026 0.043518 0
-0.068089 0.043194 0
-0.075035 0.042330 0
-0.081793 0.040939 0
-0.088290 0.039032 0
-0.094456 0.036615 0
-0.100220 0.033699 0
-0.105513 0.030295 0
-0.110267 0.026421 0
-0.114415 0.022101 0
-0.117893 0.017367 0
-0.120641 0.012264 0
-0.122603 0.006845 0
-0.123731 0.001177 0
-0.123982 -0.004661 0
-0.123326 -0.010578 0
-0.121742 -0.016473 0
-0.119223 -0.022233 0
-0.115777 -0.027740 0
-0.111428 -0.032872 0
-0.106221 -0.037504 0
-0.100218 -0.041514 0
-0.093503 -0.044790 0
-0.086179 -0.047231 0
-0.078368 -0.048755 0
-0.070211 -0.049303 0
-0.061862 -0.048844 0
-0.053485 -0.047379 0
-0.045249 -0.044943 0
-0.037323 -0.041610 0
-0.029870 -0.037492 0
-0.023037 -0.032734 0
-0.016955 -0.027518 0
-0.011728 -0.022056 0
-0.007432 -0.016586 0
-0.004113 -0.011366 0
-0.001785 -0.006671 0
-0.000429 -0.002787 0
0.000000 -0.000000 0
0.000000 0.000000 0
-0.000838 0.008090 0
-0.003103 0.015703 0
-0.006573 0.022679 0
-0.011046 0.028918 0
-0.016346 0.034366 0
-0.022319 0.039001 0
-0.028826 0.042830 0
-0.035745 0.045874 0
-0.042970 0.048164 0
-0.050401 0.049734 0
-0.057950 0.050618 0
-0.065533 0.050845 0
-0.073072 0.050439 0
-0.080490 0.049420 0
-0.087716 0.047801 0
-0.094676 0.045593 0
-0.101298 0.042805 0
-0.107511 0.039447 0
-0.113244 0.035531 0
-0.118427 0.031077 0
-0.122989 0.026109 0
-0.126863 0.020663 0
-0.129985 0.014787 0
-0.132294 0.008541 0
-0.133733 0.001997 0
-0.134254 -0.004757 0
-0.133818 -0.011620 0
-0.132394 -0.018478 0
-0.129968 -0.025206 0
-0.126537 -0.031668 0
-0.122119 -0.037723 0
-0.116749 -0.043228 0
-0.110485 -0.048040 0
-0.103407 -0.052025 0
-0.095618 -0.055061 0
-0.087245 -0.057045 0
-0.078433 -0.057902 0
-0.069349 -0.057585 0
-0.060173 -0.056087 0
-0.051093 -0.053440 0
-0.042299 -0.049719 0
-0.033979 -0.045046 0
-0.026306 -0.039583 0
-0.019435 -0.033533 0
-0.013496 -0.027135 0
-0.008586 -0.020659 0
-0.004771 -0.014395 0
-0.002079 -0.008654 0
-0.000502 -0.003749 0
0.000000 -0.000000 0
0.000000 0.000000 0
-0.000903 0.009703 0
-0.003338 0.018680 0
-0.007060 0.026798 0
-0.011850 0.033982 0
-0.017514 0.040200 0
-0.023884 0.045453 0
-0.030813 0.049765 0
-0.038169 0.053174 0
-0.045841 0.055724 0
-0.053724 0.057458 0
-0.061728 0.058418 0
-0.069768 0.058639 0
-0.077763 0.058151 0
-0.085639 0.056974 0
-0.093321 0.055125 0
-0.100738 0.052614 0
-0.107816 0.049450 0
-0.114485 0.045645 0
-0.120670 0.041211 0
-0.126302 0.036166 0
-0.131306 0.030538 0
-0.135612 0.024364 0
-0.139151 0.017694 0
-0.141856 0.010592 0
-0.143663 0.003137 0
-0.144517 -0.004576 0
-0.144368 -0.012438 0
-0.143176 -0.020322 0
-0.140914 -0.028090 0
-0.137571 -0.035589 0
-0.133151 -0.042660 0
-0.127682 -0.049137 0
-0.121212 -0.054856 0
-0.113816 -0.059657 0
-0.105595 -0.063394 0
-0.096676 -0.065941 0
-0.087213 -0.067199 0
-0.077381 -0.067104 0
-0.067378 -0.065635 0
-0.057411 -0.062817 0
-0.047696 -0.058724 0
-0.038447 -0.053485 0
-0.029867 -0.047278 0
-0.022141 -0.040328 0
-0.015427 -0.032905 0
-0.009847 -0.025310 0
-0.005490 -0.017873 0
-0.002400 -0.010940 0
-0.000582 -0.004865 0
0.000000 -0.000000 0
0.000000 0.000000 0
-0.000962 0.011428 0
-0.003553 0.021860 0
-0.007507 0.031191 0
-0.012586 0.039372 0
-0.018585 0.046400 0
-0.025322 0.052299 0
-0.032640 0.057115 0
-0.040402 0.060902 0
-0.048489 0.063718 0
-0.056795 0.065622 0
-0.065227 0.066661 0
-0.073698 0.066880 0
-0.082129 0.066311 0
-0.090443 0.064978 0
-0.098569 0.062900 0
-0.106433 0.060088 0
-0.113964 0.056552 0
-0.121090 0.052301 0
-0.127738 0.047348 0
-0.133834 0.041712 0
-0.139306 0.035419 0
-0.144077 0.028508 0
-0.148073 0.021031 0
-0.151223 0.013053 0
-0.153456 0.004658 0
-0.154706 -0.004053 0
-0.154914 -0.012961 0
-0.154028 -0.021932 0
-0.152009 -0.030811 0
-0.148832 -0.039431 0
-0.144488 -0.047612 0
-0.138993 -0.055167 0
-0.132384 -0.061906 0
-0.124727 -0.067642 0
-0.116118 -0.072201 0
-0.106684 -0.075427 0
-0.096582 -0.077196 0
-0.085999 -0.077420 0
-0.075146 -0.076057 0
-0.064254 -0.073121 0
-0.053565 -0.068683 0
-0.043324 -0.062874 0
-0.033767 -0.055888 0
-0.025113 -0.047973 0
-0.017551 -0.039429 0
-0.011238 -0.030595 0
-0.006284 -0.021843 0
-0.002755 -0.013562 0
-0.000670 -0.006149 0
0.000000 -0.000000 0
0.000000 0.000000 0
-0.001015 0.013256 0
-0.003746 0.025224 0
-0.007908 0.035832 0
-0.013250 0.045061 0
-0.019551 0.052935 0
-0.026621 0.059508 0
-0.034293 0.064845 0
-0.042425 0.069023 0
-0.050893 0.072117 0
-0.059589 0.074196 0
-0.068416 0.075320 0
-0.077290 0.075541 0
-0.086129 0.074896 0
-0.094859 0.073414 0
-0.103408 0.071114 0
-0.111706 0.068008 0
-0.119680 0.064107 0
-0.127261 0.059419 0
-0.134376 0.053956 0
-0.140950 0.047734 0
-0.146907 0.040780 0
-0.152170 0.033132 0
-0.156662 0.024841 0
-0.160303 0.015975 0
-0.163015 0.006620 0
-0.164724 -0.003118 0
-0.165360 -0.013116 0
-0.164857 -0.023227 0
-0.163163 -0.033287 0
-0.160238 -0.043110 0
-0.156057 -0.052499 0
-0.150621 -0.061242 0
-0.143952 -0.069122 0
-0.136106 -0.075923 0
-0.127169 -0.081437 0
-0.117265 -0.085477 0
-0.106552 -0.087884 0
-0.095225 -0.088540 0
-0.083511 -0.087380 0
-0.071663 -0.084398 0
-0.059952 -0.079654 0
-0.048655 -0.073283 0
-0.038048 -0.065489 0
-0.028387 -0.056544 0
-0.019901 -0.046780 0
-0.012780 -0.036578 0
-0.007167 -0.026356 0
-0.003152 -0.016554 0
-0.000770 -0.007621 0
0.000000 -0.000000 0
0.000000 0.000000 0
-0.001062 0.015174 0
-0.003915 0.028753 0
-0.008260 0.040695 0
-0.013833 0.051016 0
-0.020403 0.059771 0
-0.027768 0.067041 0
-0.035756 0.072919 0
-0.044219 0.077502 0
-0.053030 0.080882 0
-0.062077 0.083145 0
-0.071264 0.084362 0
-0.080505 0.084592 0
-0.089721 0.083880 0
-0.098838 0.082258 0
-0.107785 0.079746 0
-0.116495 0.076360 0
-0.124897 0.072108 0
-0.132923 0.066997 0
-0.140500 0.061037 0
-0.147554 0.054243 0
-0.154009 0.046640 0
-0.159785 0.038263 0
-0.164800 0.029163 0
-0.168971 0.019406 0
-0.172212 0.009080 0
-0.174440 -0.001708 0
-0.175571 -0.012828 0
-0.175530 -0.024128 0
-0.174247 -0.035430 0
-0.171664 -0.046537 0
-0.167742 -0.057229 0
-0.162461 -0.067272 0
-0.155827 -0.076421 0
-0.147880 -0.084425 0
-0.138693 -0.091042 0
-0.128383 -0.096045 0
-0.117105 -0.099236 0
-0.105061 -0.100460 0
-0.092489 -0.099619 0
-0.079666 -0.096681 0
-0.066891 -0.091691 0
-0.054480 -0.084779 0
-0.042749 -0.076157 0
-0.031999 -0.066120 0
-0.022505 -0.055035 0
-0.014497 -0.043329 0
-0.008155 -0.031471 0
-0.003598 -0.019959 0
-0.000882 -0.009302 0
0.000000 -0.000000 0
0.000000 0.000000 0
-0.001101 0.017171 0
-0.004059 0.032423 0
-0.008561 0.045750 0
-0.014332 0.057203 0
-0.021132 0.066870 0
-0.028752 0.074861 0
-0.037015 0.081296 0
-0.045766 0.086297 0
-0.054876 0.089975 0
-0.064232 0.092430 0
-0.073737 0.093749 0
-0.083306 0.093998 0
-0.092859 0.093229 0
-0.102327 0.091479 0
-0.111640 0.088771 0
-0.120732 0.085120 0
-0.129537 0.080535 0
-0.137987 0.075022 0
-0.146012 0.068587 0
-0.153540 0.061243 0
-0.160493 0.053011 0
-0.166792 0.043923 0
-0.172350 0.034027 0
-0.177080 0.023387 0
-0.180890 0.012089 0
-0.183688 0.000241 0
-0.185380 -0.012026 0
-0.185875 -0.024552 0
-0.185088 -0.037152 0
-0.182945 -0.049614 0
-0.179385 -0.061702 0
-0.174367 -0.073157 0
-0.167877 -0.083703 0
-0.159934 -0.093057 0
-0.150596 -0.100934 0
-0.139965 -0.107065 0
-0.128192 -0.111206 0
-0.115477 -0.113156 0
-0.102072 -0.112775 0
-0.088271 -0.109996 0
-0.074405 -0.104840 0
-0.060829 -0.097425 0
-0.047904 -0.087970 0
-0.035983 -0.076788 0
-0.025391 -0.064282 0
-0.016409 -0.050928 0
-0.009260 -0.037255 0
-0.004099 -0.023827 0
-0.001009 -0.011218 0
0.000000 -0.000000 0
0.000000 0.000000 0
-0.001133 0.019233 0
-0.004176 0.036212 0
-0.008806 0.050968 0
-0.014740 0.063586 0
-0.021731 0.074191 0
-0.029564 0.082924 0
-0.038055 0.089933 0
-0.047048 0.095363 0
-0.056410 0.099349 0
-0.066027 0.102007 0
-0.075803 0.103436 0
-0.085651 0.103714 0
-0.095497 0.102901 0
-0.105270 0.101038 0