# vtk DataFile Version 2.0
generated by CFD-lab course output (written by Tobias Neckel) 
ASCII

DATASET STRUCTURED_GRID
DIMENSIONS  51 51 1 
POINTS 2601 float

0.000000 0.000000 0
0.020000 0.000000 0
0.040000 0.000000 0
0.060000 0.000000 0
0.080000 0.000000 0
0.100000 0.000000 0
0.120000 0.000000 0
0.140000 0.000000 0
0.160000 0.000000 0
0.180000 0.000000 0
0.200000 0.000000 0
0.220000 0.000000 0
0.240000 0.000000 0
0.260000 0.000000 0
0.280000 0.000000 0
0.300000 0.000000 0
0.320000 0.000000 0
0.340000 0.000000 0
0.360000 0.000000 0
0.380000 0.000000 0
0.400000 0.000000 0
0.420000 0.000000 0
0.440000 0.000000 0
0.460000 0.000000 0
0.480000 0.000000 0
0.500000 0.000000 0
0.520000 0.000000 0
0.540000 0.000000 0
0.560000 0.000000 0
0.580000 0.000000 0
0.600000 0.000000 0
0.620000 0.000000 0
0.640000 0.000000 0
0.660000 0.000000 0
0.680000 0.000000 0
0.700000 0.000000 0
0.720000 0.000000 0
0.740000 0.000000 0
0.760000 0.000000 0
0.780000 0.000000 0
0.800000 0.000000 0
0.820000 0.000000 0
0.840000 0.000000 0
0.860000 0.000000 0
0.880000 0.000000 0
0.900000 0.000000 0
0.920000 0.000000 0
0.940000 0.000000 0
0.960000 0.000000 0
0.980000 0.000000 0
1.000000 0.000000 0
0.000000 0.020000 0
0.020000 0.020000 0
0.040000 0.020000 0
0.060000 0.020000 0
0.080000 0.020000 0
0.100000 0.020000 0
0.120000 0.020000 0
0.140000 0.020000 0
0.160000 0.020000 0
0.180000 0.020000 0
0.200000 0.020000 0
0.220000 0.020000 0
0.240000 0.020000 0
0.260000 0.020000 0
0.280000 0.020000 0
0.300000 0.020000 0
0.320000 0.020000 0
0.340000 0.020000 0
0.360000 0.020000 0
0.380000 0.020000 0
0.400000 0.020000 0
0.420000 0.020000 0
0.440000 0.020000 0
0.460000 0.020000 0
0.480000 0.020000 0
0.500000 0.020000 0
0.520000 0.020000 0
0.540000 0.020000 0
0.560000 0.020000 0
0.580000 0.020000 0
0.600000 0.020000 0
0.620000 0.020000 0
0.640000 0.020000 0
0.660000 0.020000 0
0.680000 0.020000 0
0.700000 0.020000 0
0.720000 0.020000 0
0.740000 0.020000 0
0.760000 0.020000 0
0.780000 0.020000 0
0.800000 0.020000 0
0.820000 0.020000 0
0.840000 0.020000 0
0.860000 0.020000 0
0.880000 0.020000 0
0.900000 0.020000 0
0.920000 0.020000 0
0.940000 0.020000 0
0.960000 0.020000 0
0.980000 0.020000 0
1.000000 0.020000 0
0.000000 0.040000 0
0.020000 0.040000 0
0.040000 0.040000 0
0.060000 0.040000 0
0.080000 0.040000 0
0.100000 0.040000 0
0.120000 0.040000 0
0.140000 0.040000 0
0.160000 0.040000 0
0.180000 0.040000 0
0.200000 0.040000 0
0.220000 0.040000 0
0.240000 0.040000 0
0.260000 0.040000 0
0.280000 0.040000 0
0.300000 0.040000 0
0.320000 0.040000 0
0.340000 0.040000 0
0.360000 0.040000 0
0.380000 0.040000 0
0.400000 0.040000 0
0.420000 0.040000 0
0.440000 0.040000 0
0.460000 0.040000 0
0.480000 0.040000 0
0.500000 0.040000 0
0.520000 0.040000 0
0.540000 0.040000 0
0.560000 0.040000 0
0.580000 0.040000 0
0.600000 0.040000 0
0.620000 0.040000 0
0.640000 0.040000 0
0.660000 0.040000 0
0.680000 0.040000 0
0.700000 0.040000 0
0.720000 0.040000 0
0.740000 0.040000 0
0.760000 0.040000 0
0.780000 0.040000 0
0.800000 0.040000 0
0.820000 0.040000 0
0.840000 0.040000 0
0.860000 0.040000 0
0.880000 0.040000 0
0.900000 0.040000 0
0.920000 0.040000 0
0.940000 0.040000 0
0.960000 0.040000 0
0.980000 0.040000 0
1.000000 0.040000 0
0.000000 0.060000 0
0.020000 0.060000 0
0.040000 0.060000 0
0.060000 0.060000 0
0.080000 0.060000 0
0.100000 0.060000 0
0.120000 0.060000 0
0.140000 0.060000 0
0.160000 0.060000 0
0.180000 0.060000 0
0.200000 0.060000 0
0.220000 0.060000 0
0.240000 0.060000 0
0.260000 0.060000 0
0.280000 0.060000 0
0.300000 0.060000 0
0.320000 0.060000 0
0.340000 0.060000 0
0.360000 0.060000 0
0.380000 0.060000 0
0.400000 0.060000 0
0.420000 0.060000 0
0.440000 0.060000 0
0.460000 0.060000 0
0.480000 0.060000 0
0.500000 0.060000 0
0.520000 0.060000 0
0.540000 0.060000 0
0.560000 0.060000 0
0.580000 0.060000 0
0.600000 0.060000 0
0.620000 0.060000 0
0.640000 0.060000 0
0.660000 0.060000 0
0.680000 0.060000 0
0.700000 0.060000 0
0.720000 0.060000 0
0.740000 0.060000 0
0.760000 0.060000 0
0.780000 0.060000 0
0.800000 0.060000 0
0.820000 0.060000 0
0.840000 0.060000 0
0.860000 0.060000 0
0.880000 0.060000 0
0.900000 0.060000 0
0.920000 0.060000 0
0.940000 0.060000 0
0.960000 0.060000 0
0.980000 0.060000 0
1.000000 0.060000 0
0.000000 0.080000 0
0.020000 0.080000 0
0.040000 0.080000 0
0.060000 0.080000 0
0.080000 0.080000 0
0.100000 0.080000 0
0.120000 0.080000 0
0.140000 0.080000 0
0.160000 0.080000 0
0.180000 0.080000 0
0.200000 0.080000 0
0.220000 0.080000 0
0.240000 0.080000 0
0.260000 0.080000 0
0.280000 0.080000 0
0.300000 0.080000 0
0.320000 0.080000 0
0.340000 0.080000 0
0.360000 0.080000 0
0.380000 0.080000 0
0.400000 0.080000 0
0.420000 0.080000 0
0.440000 0.080000 0
0.460000 0.080000 0
0.480000 0.080000 0
0.500000 0.080000 0
0.520000 0.080000 0
0.540000 0.080000 0
0.560000 0.080000 0
0.580000 0.080000 0
0.600000 0.080000 0
0.620000 0.080000 0
0.640000 0.080000 0
0.660000 0.080000 0
0.680000 0.080000 0
0.700000 0.080000 0
0.720000 0.080000 0
0.740000 0.080000 0
0.760000 0.080000 0
0.780000 0.080000 0
0.800000 0.080000 0
0.820000 0.080000 0
0.840000 0.080000 0
0.860000 0.080000 0
0.880000 0.080000 0
0.900000 0.080000 0
0.920000 0.080000 0
0.940000 0.080000 0
0.960000 0.080000 0
0.980000 0.080000 0
1.000000 0.080000 0
0.000000 0.100000 0
0.020000 0.100000 0
0.040000 0.100000 0
0.060000 0.100000 0
0.080000 0.100000 0
0.100000 0.100000 0
0.120000 0.100000 0
0.140000 0.100000 0
0.160000 0.100000 0
0.180000 0.100000 0
0.200000 0.100000 0
0.220000 0.100000 0
0.240000 0.100000 0
0.260000 0.100000 0
0.280000 0.100000 0
0.300000 0.100000 0
0.320000 0.100000 0
0.340000 0.100000 0
0.360000 0.100000 0
0.380000 0.100000 0
0.400000 0.100000 0
0.420000 0.100000 0
0.440000 0.100000 0
0.460000 0.100000 0
0.480000 0.100000 0
0.500000 0.100000 0
0.520000 0.100000 0
0.540000 0.100000 0
0.560000 0.100000 0
0.580000 0.100000 0
0.600000 0.100000 0
0.620000 0.100000 0
0.640000 0.100000 0
0.660000 0.100000 0
0.680000 0.100000 0
0.700000 0.100000 0
0.720000 0.100000 0
0.740000 0.100000 0
0.760000 0.100000 0
0.780000 0.100000 0
0.800000 0.100000 0
0.820000 0.100000 0
0.840000 0.100000 0
0.860000 0.100000 0
0.880000 0.100000 0
0.900000 0.100000 0
0.920000 0.100000 0
0.940000 0.100000 0
0.960000 0.100000 0
0.980000 0.100000 0
1.000000 0.100000 0
0.000000 0.120000 0
0.020000 0.120000 0
0.040000 0.120000 0
0.060000 0.120000 0
0.080000 0.120000 0
0.100000 0.120000 0
0.120000 0.120000 0
0.140000 0.120000 0
0.160000 0.120000 0
0.180000 0.120000 0
0.200000 0.120000 0
0.220000 0.120000 0
0.240000 0.120000 0
0.260000 0.120000 0
0.280000 0.120000 0
0.300000 0.120000 0
0.320000 0.120000 0
0.340000 0.120000 0
0.360000 0.120000 0
0.380000 0.120000 0
0.400000 0.120000 0
0.420000 0.120000 0
0.440000 0.120000 0
0.460000 0.120000 0
0.480000 0.120000 0
0.500000 0.120000 0
0.520000 0.120000 0
0.540000 0.120000 0
0.560000 0.120000 0
0.580000 0.120000 0
0.600000 0.120000 0
0.620000 0.120000 0
0.640000 0.120000 0
0.660000 0.120000 0
0.680000 0.120000 0
0.700000 0.120000 0
0.720000 0.120000 0
0.740000 0.120000 0
0.760000 0.120000 0
0.780000 0.120000 0
0.800000 0.120000 0
0.820000 0.120000 0
0.840000 0.120000 0
0.860000 0.120000 0
0.880000 0.120000 0
0.900000 0.120000 0
0.920000 0.120000 0
0.940000 0.120000 0
0.960000 0.120000 0
0.980000 0.120000 0
1.000000 0.120000 0
0.000000 0.140000 0
0.020000 0.140000 0
0.040000 0.140000 0
0.060000 0.140000 0
0.080000 0.140000 0
0.100000 0.140000 0
0.120000 0.140000 0
0.140000 0.140000 0
0.160000 0.140000 0
0.180000 0.140000 0
0.200000 0.140000 0
0.220000 0.140000 0
0.240000 0.140000 0
0.260000 0.140000 0
0.280000 0.140000 0
0.300000 0.140000 0
0.320000 0.140000 0
0.340000 0.140000 0
0.360000 0.140000 0
0.380000 0.140000 0
0.400000 0.140000 0
0.420000 0.140000 0
0.440000 0.140000 0
0.460000 0.140000 0
0.480000 0.140000 0
0.500000 0.140000 0
0.520000 0.140000 0
0.540000 0.140000 0
0.560000 0.140000 0
0.580000 0.140000 0
0.600000 0.140000 0
0.620000 0.140000 0
0.640000 0.140000 0
0.660000 0.140000 0
0.680000 0.140000 0
0.700000 0.140000 0
0.720000 0.140000 0
0.740000 0.140000 0
0.760000 0.140000 0
0.780000 0.140000 0
0.800000 0.140000 0
0.820000 0.140000 0
0.840000 0.140000 0
0.860000 0.140000 0
0.880000 0.140000 0
0.900000 0.140000 0
0.920000 0.140000 0
0.940000 0.140000 0
0.960000 0.140000 0
0.980000 0.140000 0
1.000000 0.140000 0
0.000000 0.160000 0
0.020000 0.160000 0
0.040000 0.160000 0
0.060000 0.160000 0
0.080000 0.160000 0
0.100000 0.160000 0
0.120000 0.160000 0
0.140000 0.160000 0
0.160000 0.160000 0
0.180000 0.160000 0
0.200000 0.160000 0
0.220000 0.160000 0
0.240000 0.160000 0
0.260000 0.160000 0
0.280000 0.160000 0
0.300000 0.160000 0
0.320000 0.160000 0
0.340000 0.160000 0
0.360000 0.160000 0
0.380000 0.160000 0
0.400000 0.160000 0
0.420000 0.160000 0
0.440000 0.160000 0
0.460000 0.160000 0
0.480000 0.160000 0
0.500000 0.160000 0
0.520000 0.160000 0
0.540000 0.160000 0
0.560000 0.160000 0
0.580000 0.160000 0
0.600000 0.160000 0
0.620000 0.160000 0
0.640000 0.160000 0
0.660000 0.160000 0
0.680000 0.160000 0
0.700000 0.160000 0
0.720000 0.160000 0
0.740000 0.160000 0
0.760000 0.160000 0
0.780000 0.160000 0
0.800000 0.160000 0
0.820000 0.160000 0
0.840000 0.160000 0
0.860000 0.160000 0
0.880000 0.160000 0
0.900000 0.160000 0
0.920000 0.160000 0
0.940000 0.160000 0
0.960000 0.160000 0
0.980000 0.160000 0
1.000000 0.160000 0
0.000000 0.180000 0
0.020000 0.180000 0
0.040000 0.180000 0
0.060000 0.180000 0
0.080000 0.180000 0
0.100000 0.180000 0
0.120000 0.180000 0
0.140000 0.180000 0
0.160000 0.180000 0
0.180000 0.180000 0
0.200000 0.180000 0
0.220000 0.180000 0
0.240000 0.180000 0
0.260000 0.180000 0
0.280000 0.180000 0
0.300000 0.180000 0
0.320000 0.180000 0
0.340000 0.180000 0
0.360000 0.180000 0
0.380000 0.180000 0
0.400000 0.180000 0
0.420000 0.180000 0
0.440000 0.180000 0
0.460000 0.180000 0
0.480000 0.180000 0
0.500000 0.180000 0
0.520000 0.180000 0
0.540000 0.180000 0
0.560000 0.180000 0
0.580000 0.180000 0
0.600000 0.180000 0
0.620000 0.180000 0
[...]
POINT_DATA 2601 

VECTORS velocity float
0.000000 0.000000 0
0.000000 0.000000 0
-0.000000 0.000000 0
-0.000000 0.000000 0
-0.000000 0.000000 0
0.000000 0.000000 0
0.000000 0.000000 0
0.000000 0.000000 0
0.000000 0.000000 0
-0.000000 0.000000 0
-0.000000 0.000000 0
-0.000000 0.000000 0
-0.000000 0.000000 0
0.000000 0.000000 0
0.000000 0.000000 0
0.000000 0.000000 0
0.000000 0.000000 0
0.000000 0.000000 0
0.000000 0.000000 0
-0.000000 0.000000 0
-0.000000 0.000000 0
-0.000000 0.000000 0
-0.000000 0.000000 0
-0.000000 0.000000 0
-0.000000 0.000000 0
0.000000 0.000000 0
0.000000 0.000000 0
0.000000 0.000000 0
0.000000 0.000000 0
-0.000000 0.000000 0
-0.000000 0.000000 0
-0.000000 0.000000 0
-0.000000 0.000000 0
-0.000000 0.000000 0
-0.000000 0.000000 0
-0.000000 0.000000 0
-0.000000 0.000000 0
0.000000 0.000000 0
0.000000 0.000000 0
0.000000 0.000000 0
0.000000 0.000000 0
0.000000 0.000000 0
0.000000 0.000000 0
0.000000 0.000000 0
0.000000 0.000000 0
0.000000 0.000000 0
0.000000 0.000000 0
0.000000 0.000000 0
0.000000 0.000000 0
0.000000 0.000000 0
0.000000 0.000000 0
0.000000 0.000000 0
0.000060 -0.000059 0
0.000081 -0.000023 0
-0.000015 0.000055 0
-0.000256 0.000143 0
-0.000644 0.000228 0
-0.001169 0.000301 0
-0.001811 0.000362 0
-0.002551 0.000410 0
-0.003368 0.000447 0
-0.004242 0.000474 0
-0.005156 0.000491 0
-0.006095 0.000501 0
-0.007042 0.000502 0
-0.007984 0.000497 0
-0.008908 0.000485 0
-0.009802 0.000466 0
-0.010653 0.000441 0
-0.011449 0.000409 0
-0.012176 0.000370 0
-0.012823 0.000325 0
-0.013377 0.000273 0
-0.013827 0.000215 0
-0.014162 0.000151 0
-0.014371 0.000082 0
-0.014448 0.000009 0
-0.014384 -0.000068 0
-0.014178 -0.000146 0
-0.013827 -0.000224 0
-0.013335 -0.000300 0
-0.012708 -0.000372 0
-0.011954 -0.000438 0
-0.011088 -0.000495 0
-0.010126 -0.000542 0
-0.009089 -0.000577 0
-0.008000 -0.000599 0
-0.006884 -0.000605 0
-0.005769 -0.000597 0
-0.004681 -0.000573 0
-0.003648 -0.000534 0
-0.002695 -0.000481 0
-0.001847 -0.000415 0
-0.001124 -0.000339 0
-0.000541 -0.000255 0
-0.000108 -0.000167 0
0.000171 -0.000080 0
0.000302 0.000001 0
0.000304 0.000066 0
0.000212 0.000100 0
0.000082 0.000082 0
0.000000 -0.000000 0
0.000000 0.000000 0
0.000024 -0.000081 0
-0.000076 0.000075 0
-0.000386 0.000337 0
-0.000943 0.000630 0
-0.001750 0.000913 0
-0.002790 0.001167 0
-0.004035 0.001382 0
-0.005453 0.001556 0
-0.007007 0.001691 0
-0.008666 0.001789 0
-0.010396 0.001853 0
-0.012170 0.001886 0
-0.013958 0.001890 0
-0.015734 0.001867 0
-0.017475 0.001819 0
-0.019154 0.001745 0
-0.020749 0.001646 0
-0.022236 0.001522 0
-0.023591 0.001374 0
-0.024792 0.001201 0
-0.025816 0.001004 0
-0.026642 0.000785 0
-0.027251 0.000544 0
-0.027626 0.000286 0
-0.027752 0.000013 0
-0.027619 -0.000270 0
-0.027222 -0.000557 0
-0.026559 -0.000843 0
-0.025637 -0.001120 0
-0.024467 -0.001381 0
-0.023068 -0.001620 0
-0.021463 -0.001828 0
-0.019683 -0.001999 0
-0.017766 -0.002126 0
-0.015753 -0.002205 0
-0.013688 -0.002232 0
-0.011620 -0.002204 0
-0.009598 -0.002121 0
-0.007669 -0.001986 0
-0.005880 -0.001800 0
-0.004273 -0.001571 0
-0.002882 -0.001306 0
-0.001736 -0.001016 0
-0.000852 -0.000711 0
-0.000233 -0.000410 0
0.000130 -0.000134 0
0.000266 0.000090 0
0.000230 0.000223 0
0.000102 0.000212 0
0.000000 -0.000000 0
0.000000 -0.000000 0
-0.000057 0.000016 0
-0.000349 0.000387 0
-0.000946 0.000923 0
-0.001874 0.001508 0
-0.003130 0.002075 0
-0.004691 0.002586 0
-0.006521 0.003024 0
-0.008578 0.003382 0
-0.010817 0.003661 0
-0.013195 0.003864 0
-0.015669 0.003996 0
-0.018198 0.004063 0
-0.020744 0.004067 0
-0.023269 0.004014 0
-0.025738 0.003904 0
-0.028116 0.003740 0
-0.030370 0.003522 0
-0.032466 0.003251 0
-0.034372 0.002926 0
-0.036056 0.002550 0
-0.037487 0.002124 0
-0.038636 0.001651 0
-0.039478 0.001135 0
-0.039989 0.000583 0
-0.040151 0.000002 0
-0.039950 -0.000598 0
-0.039381 -0.001206 0
-0.038444 -0.001808 0
-0.037147 -0.002392 0
-0.035506 -0.002942 0
-0.033547 -0.003442 0
-0.031304 -0.003879 0
-0.028819 -0.004239 0
-0.026141 -0.004508 0
-0.023326 -0.004677 0
-0.020436 -0.004738 0
-0.017534 -0.004687 0
-0.014687 -0.004524 0
-0.011959 -0.004251 0
-0.009412 -0.003877 0
-0.007102 -0.003413 0
-0.005077 -0.002876 0
-0.003373 -0.002286 0
-0.002016 -0.001670 0
-0.001011 -0.001061 0
-0.000347 -0.000498 0
0.000011 -0.000035 0
0.000122 0.000264 0
0.000076 0.000312 0
0.000000 0.000000 0
0.000000 -0.000000 0
-0.000153 0.000268 0
-0.000675 0.000964 0
-0.001599 0.001862 0
-0.002933 0.002814 0
-0.004661 0.003730 0
-0.006749 0.004557 0
-0.009155 0.005268 0
-0.011828 0.005852 0
-0.014716 0.006309 0
-0.017767 0.006641 0
-0.020930 0.006856 0
-0.024154 0.006960 0
-0.027392 0.006960 0
-0.030597 0.006861 0
-0.033727 0.006665 0
-0.036736 0.006377 0
-0.039583 0.005996 0
-0.042227 0.005525 0
-0.044625 0.004964 0
-0.046740 0.004316 0
-0.048533 0.003585 0
-0.049970 0.002776 0
-0.051018 0.001897 0
-0.051650 0.000959 0
-0.051846 -0.000025 0
-0.051588 -0.001039 0
-0.050871 -0.002063 0
-0.049696 -0.003077 0
-0.048073 -0.004058 0
-0.046022 -0.004981 0
-0.043576 -0.005822 0
-0.040775 -0.006556 0
-0.037670 -0.007162 0
-0.034321 -0.007619 0
-0.030795 -0.007910 0
-0.027167 -0.008024 0
-0.023515 -0.007953 0
-0.019916 -0.007697 0
-0.016451 -0.007261 0
-0.013195 -0.006657 0
-0.010215 -0.005906 0
-0.007570 -0.005035 0
-0.005306 -0.004076 0
-0.003454 -0.003074 0
-0.002026 -0.002079 0
-0.001010 -0.001155 0
-0.000375 -0.000378 0
-0.000059 0.000157 0
0.000025 0.000334 0
0.000000 0.000000 0
0.000000 -0.000000 0
-0.000253 0.000691 0
-0.001018 0.001833 0
-0.002289 0.003181 0
-0.004047 0.004569 0
-0.006259 0.005890 0
-0.008879 0.007080 0
-0.011854 0.008103 0
-0.015127 0.008944 0
-0.018639 0.009601 0
-0.022328 0.010078 0
-0.026138 0.010383 0
-0.030010 0.010524 0
-0.033890 0.010511 0
-0.037725 0.010348 0
-0.041462 0.010043 0
-0.045051 0.009596 0
-0.048442 0.009013 0
-0.051586 0.008293 0
-0.054436 0.007440 0
-0.056947 0.006459 0
-0.059074 0.005354 0
-0.060777 0.004136 0
-0.062020 0.002816 0
-0.062772 0.001410 0
-0.063008 -0.000060 0
-0.062712 -0.001572 0
-0.061875 -0.003098 0
-0.060499 -0.004607 0
-0.058596 -0.006065 0
-0.056190 -0.007438 0
-0.053316 -0.008690 0
-0.050021 -0.009786 0
-0.046363 -0.010693 0
-0.042410 -0.011382 0
-0.038240 -0.011830 0
-0.033935 -0.012019 0
-0.029586 -0.011938 0
-0.025284 -0.011587 0
-0.021119 -0.010972 0
-0.017178 -0.010113 0
-0.013541 -0.009038 0
-0.010277 -0.007784 0
-0.007442 -0.006402 0
-0.005073 -0.004951 0
-0.003189 -0.003505 0
-0.001786 -0.002149 0
-0.000834 -0.000986 0
-0.000278 -0.000136 0
-0.000036 0.000252 0
0.000000 0.000000 0
0.000000 0.000000 0
-0.000351 0.001287 0
-0.001361 0.003000 0
-0.002984 0.004890 0
-0.005172 0.006783 0
-0.007872 0.008561 0
-0.011023 0.010152 0
-0.014561 0.011517 0
-0.018420 0.012637 0
-0.022533 0.013510 0
-0.026835 0.014140 0
-0.031259 0.014538 0
-0.035744 0.014712 0
-0.040228 0.014674 0
-0.044652 0.014432 0
-0.048957 0.013991 0
-0.053087 0.013356 0
-0.056986 0.012531 0
-0.060600 0.011519 0
-0.063874 0.010325 0
-0.066759 0.008953 0
-0.069206 0.007415 0
-0.071168 0.005722 0
-0.072607 0.003892 0
-0.073488 0.001947 0
-0.073782 -0.000086 0
-0.073472 -0.002172 0
-0.072548 -0.004277 0
-0.071010 -0.006356 0
-0.068873 -0.008367 0
-0.066160 -0.010261 0
-0.062911 -0.011990 0
-0.059176 -0.013509 0
-0.055018 -0.014773 0
-0.050512 -0.015742 0
-0.045742 -0.016385 0
-0.040802 -0.016677 0
-0.035790 -0.016604 0
-0.030808 -0.016164 0
-0.025959 -0.015367 0
-0.021341 -0.014235 0
-0.017045 -0.012807 0
-0.013151 -0.011134 0
-0.009726 -0.009280 0
-0.006816 -0.007326 0
-0.004449 -0.005367 0
-0.002629 -0.003511 0
-0.001333 -0.001886 0
-0.000514 -0.000640 0
-0.000101 0.000056 0
0.000000 0.000000 0
0.000000 0.000000 0
-0.000446 0.002052 0
-0.001695 0.004464 0
-0.003667 0.006991 0
-0.006282 0.009457 0
-0.009466 0.011741 0
-0.013142 0.013769 0
-0.017233 0.015501 0
-0.021665 0.016917 0
-0.026362 0.018016 0
-0.031252 0.018803 0
-0.036266 0.019292 0
-0.041335 0.019492 0
-0.046393 0.019418 0
-0.051375 0.019077 0
-0.056219 0.018478 0
-0.060863 0.017626 0
-0.065246 0.016525 0
-0.069309 0.015181 0
-0.072993 0.013600 0
-0.076243 0.011790 0
-0.079007 0.009763 0
-0.081233 0.007537 0
-0.082880 0.005135 0
-0.083907 0.002585 0
-0.084286 -0.000076 0
-0.083994 -0.002807 0
-0.083020 -0.005560 0
-0.081364 -0.008282 0
-0.079037 -0.010915 0
-0.076066 -0.013400 0
-0.072489 -0.015674 0
-0.068360 -0.017679 0
-0.063745 -0.019357 0
-0.058724 -0.020658 0
-0.053387 -0.021540 0
-0.047835 -0.021971 0
-0.042178 -0.021932 0
-0.036525 -0.021417 0
-0.030993 -0.020440 0
-0.025689 -0.019028 0
-0.020719 -0.017227 0
-0.016175 -0.015103 0
-0.012134 -0.012736 0
-0.008656 -0.010227 0
-0.005779 -0.007692 0
-0.003515 -0.005266 0
-0.001854 -0.003100 0
-0.000758 -0.001368 0
-0.000166 -0.000262 0
0.000000 0.000000 0
0.000000 0.000000 0
-0.000537 0.002982 0
-0.002018 0.006220 0
-0.004328 0.009477 0
-0.007362 0.012583 0
-0.011020 0.015421 0
-0.015210 0.017920 0
-0.019842 0.020040 0
-0.024830 0.021766 0
-0.030092 0.023098 0
-0.035552 0.024044 0
-0.041132 0.024620 0
-0.046762 0.024839 0
-0.052370 0.024715 0
-0.057888 0.024259 0
-0.063249 0.023479 0
-0.068388 0.022384 0
-0.073240 0.020977 0
-0.077741 0.019267 0
-0.081831 0.017259 0
-0.085447 0.014967 0
-0.088535 0.012405 0
-0.091040 0.009595 0
-0.092915 0.006566 0
-0.094117 0.003353 0
-0.094614 0.000001 0
-0.094379 -0.003438 0
-0.093399 -0.006907 0
-0.091670 -0.010339 0
-0.089202 -0.013664 0
-0.086020 -0.016809 0
-0.082161 -0.019696 0
-0.077680 -0.022253 0
-0.072645 -0.024409 0
-0.067139 -0.026101 0
-0.061258 -0.027273 0
-0.055110 -0.027886 0
-0.048812 -0.027914 0
-0.042486 -0.027349 0
-0.036258 -0.026203 0
-0.030250 -0.024509 0
-0.024580 -0.022321 0
-0.019356 -0.019719 0
-0.014668 -0.016799 0
-0.010589 -0.013682 0
-0.007170 -0.010508 0
-0.004438 -0.007436 0
-0.002391 -0.004644 0
-0.001006 -0.002328 0
-0.000231 -0.000702 0
0.000000 0.000000 0
0.000000 -0.000000 0
-0.000623 0.004069 0
-0.002326 0.008255 0
-0.004963 0.012336 0
-0.008401 0.016149 0
-0.012519 0.019590 0
-0.017207 0.022591 0
-0.022363 0.025121 0
-0.027890 0.027168 0
-0.033700 0.028737 0
-0.039708 0.029843 0
-0.045835 0.030501 0
-0.052004 0.030729 0
-0.058142 0.030544 0
-0.064178 0.029957 0
-0.070041 0.028979 0
-0.075663 0.027617 0
-0.080976 0.025879 0
-0.085913 0.023772 0
-0.090410 0.021305 0
-0.094402 0.018494 0
-0.097829 0.015355 0
-0.100635 0.011917 0
-0.102767 0.008213 0
-0.104180 0.004285 0
-0.104835 0.000186 0
-0.104704 -0.004022 0
-0.103766 -0.008270 0
-0.102014 -0.012479 0
-0.099456 -0.016566 0
-0.096112 -0.020441 0
-0.092018 -0.024014 0
-0.087227 -0.027195 0
-0.081807 -0.029898 0
-0.075843 -0.032045 0
-0.069436 -0.033569 0
-0.062700 -0.034417 0
-0.055759 -0.034556 0
-0.048748 -0.033972 0
-0.041803 -0.032676 0
-0.035063 -0.030705 0
-0.028660 -0.028122 0
-0.022716 -0.025016 0
-0.017341 -0.021503 0
-0.012624 -0.017724 0
-0.008630 -0.013843 0
-0.005400 -0.010044 0
-0.002948 -0.006532 0
-0.001259 -0.003528 0
-0.000296 -0.001267 0
0.000000 0.000000 0
0.000000 -0.000000 0
-0.000704 0.005307 0
-0.002618 0.010559 0
-0.005566 0.015552 0
-0.009391 0.020140 0
-0.013951 0.024229 0
-0.019119 0.027764 0
-0.024779 0.030723 0
-0.030825 0.033103 0
-0.037161 0.034915 0
-0.043698 0.036179 0
-0.050351 0.036916 0
-0.057041 0.037146 0
-0.063692 0.036889 0
-0.070230 0.036158 0
-0.076583 0.034965 0
-0.082680 0.033319 0
-0.088451 0.031228 0
-0.093827 0.028700 0
-0.098739 0.025748 0
-0.103121 0.022386 0
-0.106910 0.018638 0
-0.110045 0.014533 0
-0.112470 0.010111 0
-0.114135 0.005421 0
-0.114996 0.000525 0
-0.115017 -0.004508 0
-0.114176 -0.009596 0
-0.112459 -0.014648 0
-0.109866 -0.019567 0
-0.106414 -0.024247 0
-0.102134 -0.028582 0
-0.097076 -0.032465 0
-0.091308 -0.035793 0
-0.084913 -0.038471 0
-0.077997 -0.040416 0
-0.070678 -0.041563 0
-0.063089 -0.041866 0
-0.055375 -0.041305 0
-0.047687 -0.039888 0
-0.040178 -0.037652 0
-0.033000 -0.034668 0
-0.026292 -0.031037 0
-0.020184 -0.026891 0
-0.014783 -0.022394 0
-0.010173 -0.017732 0
-0.006413 -0.013118 0
-0.003529 -0.008784 0
-0.001522 -0.004979 0
-0.000363 -0.001961 0
0.000000 0.000000 0
0.000000 -0.000000 0
-0.000780 0.006686 0
-0.002893 0.013118 0
-0.006136 0.019110 0
-0.010328 0.024535 0
-0.015308 0.029318 0
-0.020933 0.033418 0
-0.027073 0.036826 0
-0.033616 0.039550 0
-0.040455 0.041610 0
-0.047498 0.043032 0
-0.054657 0.043844 0
-0.061849 0.044071 0
-0.068996 0.043733 0
-0.076023 0.042848 0
-0.082856 0.041429 0
-0.089422 0.039485 0
-0.095651 0.037025 0
-0.101470 0.034059 0
-0.106810 0.030600 0
-0.111601 0.026665 0
-0.115778 0.022280 0
-0.119276 0.017477 0
-0.122033 0.012302 0
-0.123995 0.006810 0
-0.125113 0.001069 0
-0.125345 -0.004842 0
-0.124660 -0.010828 0
-0.123038 -0.016789 0
-0.120472 -0.022610 0
-0.116971 -0.028173 0
-0.112560 -0.033352 0
-0.107284 -0.038022 0
-0.101207 -0.042061 0
-0.094412 -0.045356 0
-0.087005 -0.047805 0
-0.079109 -0.049325 0
-0.070865 -0.049859 0
-0.062430 -0.049374 0
-0.053969 -0.047872 0
-0.045652 -0.045392 0
-0.037651 -0.042008 0
-0.030128 -0.037831 0
-0.023233 -0.033013 0
-0.017096 -0.027735 0
-0.011824 -0.022214 0
-0.007492 -0.016689 0
-0.004145 -0.011423 0
-0.001798 -0.006694 0
-0.000432 -0.002789 0
0.000000 0.000000 0
0.000000 -0.000000 0
-0.000851 0.008199 0
-0.003150 0.015916 0
-0.006669 0.022989 0
-0.011206 0.029313 0
-0.016582 0.034833 0
-0.022637 0.039529 0
-0.029232 0.043405 0
-0.036244 0.046484 0
-0.043562 0.048798 0
-0.051087 0.050381 0
-0.058729 0.051267 0
-0.066402 0.051486 0
-0.074028 0.051063 0
-0.081529 0.050017 0
-0.088832 0.048364 0
-0.095863 0.046113 0
-0.102549 0.043275 0
-0.108818 0.039859 0
-0.114599 0.035879 0
-0.119821 0.031355 0
-0.124413 0.026312 0
-0.128307 0.020788 0
-0.131440 0.014831 0
-0.133749 0.008501 0
-0.135179 0.001875 0
-0.135682 -0.004961 0
-0.135218 -0.011903 0
-0.133758 -0.018837 0
-0.131285 -0.025634 0
-0.127801 -0.032159 0
-0.123321 -0.038269 0
-0.117882 -0.043818 0
-0.111543 -0.048665 0
-0.104384 -0.052673 0
-0.096511 -0.055720 0
-0.088049 -0.057703 0
-0.079148 -0.058545 0
-0.069974 -0.058202 0
-0.060709 -0.056666 0
-0.051543 -0.053970 0
-0.042667 -0.050192 0
-0.034271 -0.045455 0
-0.026530 -0.039923 0
-0.019598 -0.033803 0
-0.013608 -0.027337 0
-0.008657 -0.020796 0
-0.004810 -0.014478 0
-0.002095 -0.008692 0
-0.000506 -0.003760 0
0.000000 0.000000 0
0.000000 -0.000000 0
-0.000916 0.009836 0
-0.003387 0.018937 0
-0.007163 0.027167 0
-0.012020 0.034448 0
-0.017763 0.040748 0
-0.024220 0.046068 0
-0.031240 0.050432 0
-0.038692 0.053879 0
-0.046460 0.056453 0
-0.054440 0.058199 0
-0.062539 0.059160 0
-0.070671 0.059370 0
-0.078756 0.058861 0
-0.086716 0.057652 0
-0.094477 0.055762 0
-0.101965 0.053202 0
-0.109108 0.049981 0
-0.115833 0.046110 0
-0.122067 0.041602 0
-0.127738 0.036479 0
-0.132773 0.030767 0
-0.137100 0.024505 0
-0.140650 0.017744 0
-0.143357 0.010549 0
-0.145157 0.003002 0
-0.145994 -0.004803 0
-0.145819 -0.012753 0
-0.144592 -0.020722 0
-0.142286 -0.028567 0
-0.138890 -0.036137 0
-0.134410 -0.043270 0
-0.128873 -0.049800 0
-0.122329 -0.055559 0
-0.114853 -0.060388 0
-0.106546 -0.064140 0
-0.097538 -0.066688 0
-0.087983 -0.067934 0
-0.078059 -0.067813 0
-0.067963 -0.066304 0
-0.057905 -0.063434 0
-0.048103 -0.059279 0
-0.038773 -0.053969 0
-0.030119 -0.047685 0
-0.022326 -0.040657 0
-0.015555 -0.033156 0
-0.009928 -0.025487 0
-0.005535 -0.017985 0
-0.002419 -0.010998 0
-0.000586 -0.004884 0
0.000000 -0.000000 0
0.000000 0.000000 0
-0.000976 0.011587 0
-0.003604 0.022163 0
-0.007613 0.031621 0
-0.012763 0.039913 0
-0.018843 0.047032 0
-0.025669 0.053005 0
-0.033081 0.057877 0
-0.040941 0.061704 0
-0.049126 0.064546 0
-0.057531 0.066460 0
-0.066059 0.067498 0
-0.074624 0.067702 0
-0.083144 0.067107 0
-0.091543 0.065738 0
-0.099747 0.063613 0
-0.107683 0.060745 0
-0.115279 0.057143 0
-0.122462 0.052818 0
-0.129158 0.047784 0
-0.135295 0.042060 0
-0.140797 0.035674 0
-0.145589 0.028666 0
-0.149599 0.021088 0
-0.152752 0.013008 0
-0.154979 0.004512 0
-0.156214 -0.004300 0
-0.156398 -0.013306 0
-0.155480 -0.022369 0
-0.153419 -0.031335 0
-0.150192 -0.040034 0
-0.145791 -0.048285 0
-0.140231 -0.055900 0
-0.133549 -0.062686 0
-0.125814 -0.068456 0
-0.117121 -0.073034 0
-0.107597 -0.076266 0
-0.097403 -0.078024 0
-0.086725 -0.078222 0
-0.075776 -0.076820 0
-0.064790 -0.073829 0
-0.054010 -0.069324 0
-0.043682 -0.063439 0
-0.034045 -0.056370 0
-0.025319 -0.048367 0
-0.017695 -0.039734 0
-0.011330 -0.030816 0
-0.006335 -0.021987 0
-0.002778 -0.013641 0
-0.000676 -0.006179 0
0.000000 -0.000000 0
0.000000 0.000000 0
-0.001029 0.013440 0
-0.003798 0.025574 0
-0.008017 0.036326 0
-0.013430 0.045678 0
-0.019814 0.053653 0
-0.026974 0.060306 0
-0.034741 0.065704 0
-0.042971 0.069924 0
-0.051539 0.073044 0
-0.060333 0.075132 0
-0.069258 0.076253 0
-0.078225 0.076455 0
-0.087153 0.075780 0
-0.095967 0.074256 0
-0.104594 0.071902 0
-0.112963 0.068733 0
-0.121001 0.064759 0
-0.128638 0.059989 0
-0.135801 0.054435 0
-0.142414 0.048117 0
-0.148402 0.041061 0
-0.153687 0.033307 0
-0.158192 0.024906 0
-0.161837 0.015930 0
-0.164546 0.006464 0
-0.166242 -0.003384 0
-0.166856 -0.013488 0
-0.166325 -0.023700 0
-0.164593 -0.033855 0
-0.161621 -0.043765 0
-0.157387 -0.053232 0
-0.151889 -0.062042 0
-0.145152 -0.069976 0
-0.137230 -0.076817 0
-0.128211 -0.082357 0
-0.118219 -0.086406 0
-0.107414 -0.088806 0
-0.095992 -0.089439 0
-0.084182 -0.088238 0
-0.072237 -0.085200 0
-0.060431 -0.080387 0
-0.049043 -0.073934 0
-0.038351 -0.066049 0
-0.028613 -0.057007 0
-0.020060 -0.047145 0
-0.012882 -0.036847 0
-0.007225 -0.026536 0
-0.003178 -0.016657 0
-0.000776 -0.007662 0
0.000000 -0.000000 0
0.000000 0.000000 0
-0.001076 0.015385 0
-0.003967 0.029150 0
-0.008370 0.041253 0
-0.014014 0.051709 0
-0.020666 0.060575 0
-0.028121 0.067932 0
-0.036204 0.073875 0
-0.044765 0.078502 0
-0.053674 0.081908 0
-0.062819 0.084179 0
-0.072102 0.085389 0
-0.081435 0.085597 0
-0.090739 0.084850 0
-0.099938 0.083180 0
-0.108962 0.080609 0
-0.117740 0.077152 0
-0.126205 0.072819 0
-0.134285 0.067618 0
-0.141908 0.061560 0
-0.149001 0.054661 0
-0.155486 0.046948 0
-0.161284 0.038456 0
-0.166313 0.029238 0
-0.170489 0.019362 0
-0.173728 0.008917 0
-0.175945 -0.001989 0
-0.177059 -0.013224 0
-0.176991 -0.024633 0
-0.175674 -0.036038 0
-0.173051 -0.047240 0
-0.169080 -0.058018 0
-0.163742 -0.068135 0
-0.157044 -0.077345 0
-0.149026 -0.085397 0
-0.139761 -0.092045 0
-0.129366 -0.097063 0
-0.117999 -0.100251 0
-0.105861 -0.101455 0
-0.093193 -0.100575 0
-0.080272 -0.097580 0
-0.067401 -0.092518 0
-0.054896 -0.085519 0
-0.043076 -0.076800 0
-0.032245 -0.066658 0
-0.022678 -0.055465 0
-0.014609 -0.043651 0
-0.008218 -0.031692 0
-0.003626 -0.020089 0
-0.000889 -0.009356 0
0.000000 -0.000000 0
0.000000 0.000000 0
-0.001115 0.017408 0
-0.004111 0.032868 0
-0.008669 0.046373 0
-0.014511 0.057973 0
-0.021391 0.067760 0
-0.029100 0.075844 0
-0.037455 0.082348 0
-0.046303 0.087395 0
-0.055509 0.091098 0
-0.064961 0.093560 0
-0.074559 0.094868 0
-0.084217 0.095092 0
-0.093855 0.094282 0
-0.103402 0.092479 0
-0.112788 0.089705 0
-0.121947 0.085977 0
-0.130811 0.081303 0
-0.139314 0.075692 0
-0.147383 0.069151 0
-0.154948 0.061695 0
-0.161930 0.053344 0
-0.168249 0.044134 0
-0.173821 0.034112 0
-0.178558 0.023345 0
-0.182367 0.011920 0
-0.185157 -0.000053 0
-0.186833 -0.012442 0
-0.187306 -0.025085 0
-0.186491 -0.037795 0
-0.184311 -0.050360 0
-0.180707 -0.062541 0
-0.175639 -0.074077 0
-0.169091 -0.084692 0
-0.161084 -0.094100 0
-0.151673 -0.102016 0
-0.140964 -0.108168 0
-0.129105 -0.112311 0
-0.116300 -0.114245 0
-0.102801 -0.113827 0
-0.088903 -0.110992 0
-0.074940 -0.105763 0
-0.061268 -0.098259 0
-0.048251 -0.088700 0
-0.036246 -0.077405 0
-0.025578 -0.064780 0
-0.016531 -0.051307 0
-0.009330 -0.037519 0
-0.004130 -0.023986 0
-0.001017 -0.011288 0
0.000000 -0.000000 0
0.000000 0.000000 0
-0.001147 0.019496 0
-0.004226 0.036703 0
-0.008910 0.051653 0
-0.014913 0.064432 0
-0.021982 0.075165 0
-0.029900 0.083997 0
-0.038481 0.091078 0
-0.047566 0.096556 0
-0.057021 0.100566 0
-0.066731 0.103229 0
-0.076595 0.104645 0
-0.086529 0.104893 0
-0.096456 0.104035 0
-0.106305 0.102113 0
-0.116010 0.099154 0