# vtk DataFile Version 2.0
generated by CFD-lab course output (written by Tobias Neckel) 
ASCII

DATASET STRUCTURED_GRID
DIMENSIONS  51 51 1 
POINTS 2601 float

0.000000 0.000000 0
0.020000 0.000000 0
0.040000 0.000000 0
0.060000 0.000000 0
0.080000 0.000000 0
0.100000 0.000000 0
0.120000 0.000000 0
0.140000 0.000000 0
0.160000 0.000000 0
0.180000 0.000000 0
0.200000 0.000000 0
0.220000 0.000000 0
0.240000 0.000000 0
0.260000 0.000000 0
0.280000 0.000000 0
0.300000 0.000000 0
0.320000 0.000000 0
0.340000 0.000000 0
0.360000 0.000000 0
0.380000 0.000000 0
0.400000 0.000000 0
0.420000 0.000000 0
0.440000 0.000000 0
0.460000 0.000000 0
0.480000 0.000000 0
0.500000 0.000000 0
0.520000 0.000000 0
0.540000 0.000000 0
0.560000 0.000000 0
0.580000 0.000000 0
0.600000 0.000000 0
0.620000 0.000000 0
0.640000 0.000000 0
0.660000 0.000000 0
0.680000 0.000000 0
0.700000 0.000000 0
0.720000 0.000000 0
0.740000 0.000000 0
0.760000 0.000000 0
0.780000 0.000000 0
0.800000 0.000000 0
0.820000 0.000000 0
0.840000 0.000000 0
0.860000 0.000000 0
0.880000 0.000000 0
0.900000 0.000000 0
0.920000 0.000000 0
0.940000 0.000000 0
0.960000 0.000000 0
0.980000 0.000000 0
1.000000 0.000000 0
0.000000 0.020000 0
0.020000 0.020000 0
0.040000 0.020000 0
0.060000 0.020000 0
0.080000 0.020000 0
0.100000 0.020000 0
0.120000 0.020000 0
0.140000 0.020000 0
0.160000 0.020000 0
0.180000 0.020000 0
0.200000 0.020000 0
0.220000 0.020000 0
0.240000 0.020000 0
0.260000 0.020000 0
0.280000 0.020000 0
0.300000 0.020000 0
0.320000 0.020000 0
0.340000 0.020000 0
0.360000 0.020000 0
0.380000 0.020000 0
0.400000 0.020000 0
0.420000 0.020000 0
0.440000 0.020000 0
0.460000 0.020000 0
0.480000 0.020000 0
0.500000 0.020000 0
0.520000 0.020000 0
0.540000 0.020000 0
0.560000 0.020000 0
0.580000 0.020000 0
0.600000 0.020000 0
0.620000 0.020000 0
0.640000 0.020000 0
0.660000 0.020000 0
0.680000 0.020000 0
0.700000 0.020000 0
0.720000 0.020000 0
0.740000 0.020000 0
0.760000 0.020000 0
0.780000 0.020000 0
0.800000 0.020000 0
0.820000 0.020000 0
0.840000 0.020000 0
0.860000 0.020000 0
0.880000 0.020000 0
0.900000 0.020000 0
0.920000 0.020000 0
0.940000 0.020000 0
0.960000 0.020000 0
0.980000 0.020000 0
1.000000 0.020000 0
0.000000 0.040000 0
0.020000 0.040000 0
0.040000 0.040000 0
0.060000 0.040000 0
0.080000 0.040000 0
0.100000 0.040000 0
0.120000 0.040000 0
0.140000 0.040000 0
0.160000 0.040000 0
0.180000 0.040000 0
0.200000 0.040000 0
0.220000 0.040000 0
0.240000 0.040000 0
0.260000 0.040000 0
0.280000 0.040000 0
0.300000 0.040000 0
0.320000 0.040000 0
0.340000 0.040000 0
0.360000 0.040000 0
0.380000 0.040000 0
0.400000 0.040000 0
0.420000 0.040000 0
0.440000 0.040000 0
0.460000 0.040000 0
0.480000 0.040000 0
0.500000 0.040000 0
0.520000 0.040000 0
0.540000 0.040000 0
0.560000 0.040000 0
0.580000 0.040000 0
0.600000 0.040000 0
0.620000 0.040000 0
0.640000 0.040000 0
0.660000 0.040000 0
0.680000 0.040000 0
0.700000 0.040000 0
0.720000 0.040000 0
0.740000 0.040000 0
0.760000 0.040000 0
0.780000 0.040000 0
0.800000 0.040000 0
0.820000 0.040000 0
0.840000 0.040000 0
0.860000 0.040000 0
0.880000 0.040000 0
0.900000 0.040000 0
0.920000 0.040000 0
0.940000 0.040000 0
0.960000 0.040000 0
0.980000 0.040000 0
1.000000 0.040000 0
0.000000 0.060000 0
0.020000 0.060000 0
0.040000 0.060000 0
0.060000 0.060000 0
0.080000 0.060000 0
0.100000 0.060000 0
0.120000 0.060000 0
0.140000 0.060000 0
0.160000 0.060000 0
0.180000 0.060000 0
0.200000 0.060000 0
0.220000 0.060000 0
0.240000 0.060000 0
0.260000 0.060000 0
0.280000 0.060000 0
0.300000 0.060000 0
0.320000 0.060000 0
0.340000 0.060000 0
0.360000 0.060000 0
0.380000 0.060000 0
0.400000 0.060000 0
0.420000 0.060000 0
0.440000 0.060000 0
0.460000 0.060000 0
0.480000 0.060000 0
0.500000 0.060000 0
0.520000 0.060000 0
0.540000 0.060000 0
0.560000 0.060000 0
0.580000 0.060000 0
0.600000 0.060000 0
0.620000 0.060000 0
0.640000 0.060000 0
0.660000 0.060000 0
0.680000 0.060000 0
0.700000 0.060000 0
0.720000 0.060000 0
0.740000 0.060000 0
0.760000 0.060000 0
0.780000 0.060000 0
0.800000 0.060000 0
0.820000 0.060000 0
0.840000 0.060000 0
0.860000 0.060000 0
0.880000 0.060000 0
0.900000 0.060000 0
0.920000 0.060000 0
0.940000 0.060000 0
0.960000 0.060000 0
0.980000 0.060000 0
1.000000 0.060000 0
0.000000 0.080000 0
0.020000 0.080000 0
0.040000 0.080000 0
0.060000 0.080000 0
0.080000 0.080000 0
0.100000 0.080000 0
0.120000 0.080000 0
0.140000 0.080000 0
0.160000 0.080000 0
0.180000 0.080000 0
0.200000 0.080000 0
0.220000 0.080000 0
0.240000 0.080000 0
0.260000 0.080000 0
0.280000 0.080000 0
0.300000 0.080000 0
0.320000 0.080000 0
0.340000 0.080000 0
0.360000 0.080000 0
0.380000 0.080000 0
0.400000 0.080000 0
0.420000 0.080000 0
0.440000 0.080000 0
0.460000 0.080000 0
0.480000 0.080000 0
0.500000 0.080000 0
0.520000 0.080000 0
0.540000 0.080000 0
0.560000 0.080000 0
0.580000 0.080000 0
0.600000 0.080000 0
0.620000 0.080000 0
0.640000 0.080000 0
0.660000 0.080000 0
0.680000 0.080000 0
0.700000 0.080000 0
0.720000 0.080000 0
0.740000 0.080000 0
0.760000 0.080000 0
0.780000 0.080000 0
0.800000 0.080000 0
0.820000 0.080000 0
0.840000 0.080000 0
0.860000 0.080000 0
0.880000 0.080000 0
0.900000 0.080000 0
0.920000 0.080000 0
0.940000 0.080000 0
0.960000 0.080000 0
0.980000 0.080000 0
1.000000 0.080000 0
0.000000 0.100000 0
0.020000 0.100000 0
0.040000 0.100000 0
0.060000 0.100000 0
0.080000 0.100000 0
0.100000 0.100000 0
0.120000 0.100000 0
0.140000 0.100000 0
0.160000 0.100000 0
0.180000 0.100000 0
0.200000 0.100000 0
0.220000 0.100000 0
0.240000 0.100000 0
0.260000 0.100000 0
0.280000 0.100000 0
0.300000 0.100000 0
0.320000 0.100000 0
0.340000 0.100000 0
0.360000 0.100000 0
0.380000 0.100000 0
0.400000 0.100000 0
0.420000 0.100000 0
0.440000 0.100000 0
0.460000 0.100000 0
0.480000 0.100000 0
0.500000 0.100000 0
0.520000 0.100000 0
0.540000 0.100000 0
0.560000 0.100000 0
0.580000 0.100000 0
0.600000 0.100000 0
0.620000 0.100000 0
0.640000 0.100000 0
0.660000 0.100000 0
0.680000 0.100000 0
0.700000 0.100000 0
0.720000 0.100000 0
0.740000 0.100000 0
0.760000 0.100000 0
0.780000 0.100000 0
0.800000 0.100000 0
0.820000 0.100000 0
0.840000 0.100000 0
0.860000 0.100000 0
0.880000 0.100000 0
0.900000 0.100000 0
0.920000 0.100000 0
0.940000 0.100000 0
0.960000 0.100000 0
0.980000 0.100000 0
1.000000 0.100000 0
0.000000 0.120000 0
0.020000 0.120000 0
0.040000 0.120000 0
0.060000 0.120000 0
0.080000 0.120000 0
0.100000 0.120000 0
0.120000 0.120000 0
0.140000 0.120000 0
0.160000 0.120000 0
0.180000 0.120000 0
0.200000 0.120000 0
0.220000 0.120000 0
0.240000 0.120000 0
0.260000 0.120000 0
0.280000 0.120000 0
0.300000 0.120000 0
0.320000 0.120000 0
0.340000 0.120000 0
0.360000 0.120000 0
0.380000 0.120000 0
0.400000 0.120000 0
0.420000 0.120000 0
0.440000 0.120000 0
0.460000 0.120000 0
0.480000 0.120000 0
0.500000 0.120000 0
0.520000 0.120000 0
0.540000 0.120000 0
0.560000 0.120000 0
0.580000 0.120000 0
0.600000 0.120000 0
0.620000 0.120000 0
0.640000 0.120000 0
0.660000 0.120000 0
0.680000 0.120000 0
0.700000 0.120000 0
0.720000 0.120000 0
0.740000 0.120000 0
0.760000 0.120000 0
0.780000 0.120000 0
0.800000 0.120000 0
0.820000 0.120000 0
0.840000 0.120000 0
0.860000 0.120000 0
0.880000 0.120000 0
0.900000 0.120000 0
0.920000 0.120000 0
0.940000 0.120000 0
0.960000 0.120000 0
0.980000 0.120000 0
1.000000 0.120000 0
0.000000 0.140000 0
0.020000 0.140000 0
0.040000 0.140000 0
0.060000 0.140000 0
0.080000 0.140000 0
0.100000 0.140000 0
0.120000 0.140000 0
0.140000 0.140000 0
0.160000 0.140000 0
0.180000 0.140000 0
0.200000 0.140000 0
0.220000 0.140000 0
0.240000 0.140000 0
0.260000 0.140000 0
0.280000 0.140000 0
0.300000 0.140000 0
0.320000 0.140000 0
0.340000 0.140000 0
0.360000 0.140000 0
0.380000 0.140000 0
0.400000 0.140000 0
0.420000 0.140000 0
0.440000 0.140000 0
0.460000 0.140000 0
0.480000 0.140000 0
0.500000 0.140000 0
0.520000 0.140000 0
0.540000 0.140000 0
0.560000 0.140000 0
0.580000 0.140000 0
0.600000 0.140000 0
0.620000 0.140000 0
0.640000 0.140000 0
0.660000 0.140000 0
0.680000 0.140000 0
0.700000 0.140000 0
0.720000 0.140000 0
0.740000 0.140000 0
0.760000 0.140000 0
0.780000 0.140000 0
0.800000 0.140000 0
0.820000 0.140000 0
0.840000 0.140000 0
0.860000 0.140000 0
0.880000 0.140000 0
0.900000 0.140000 0
0.920000 0.140000 0
0.940000 0.140000 0
0.960000 0.140000 0
0.980000 0.140000 0
1.000000 0.140000 0
0.000000 0.160000 0
0.020000 0.160000 0
0.040000 0.160000 0
0.060000 0.160000 0
0.080000 0.160000 0
0.100000 0.160000 0
0.120000 0.160000 0
0.140000 0.160000 0
0.160000 0.160000 0
0.180000 0.160000 0
0.200000 0.160000 0
0.220000 0.160000 0
0.240000 0.160000 0
0.260000 0.160000 0
0.280000 0.160000 0
0.300000 0.160000 0
0.320000 0.160000 0
0.340000 0.160000 0
0.360000 0.160000 0
0.380000 0.160000 0
0.400000 0.160000 0
0.420000 0.160000 0
0.440000 0.160000 0
0.460000 0.160000 0
0.480000 0.160000 0
0.500000 0.160000 0
0.520000 0.160000 0
0.540000 0.160000 0
0.560000 0.160000 0
0.580000 0.160000 0
0.600000 0.160000 0
0.620000 0.160000 0
0.640000 0.160000 0
0.660000 0.160000 0
0.680000 0.160000 0
0.700000 0.160000 0
0.720000 0.160000 0
0.740000 0.160000 0
0.760000 0.160000 0
0.780000 0.160000 0
0.800000 0.160000 0
0.820000 0.160000 0
0.840000 0.160000 0
0.860000 0.160000 0
0.880000 0.160000 0
0.900000 0.160000 0
0.920000 0.160000 0
0.940000 0.160000 0
0.960000 0.160000 0
0.980000 0.160000 0
1.000000 0.160000 0
0.000000 0.180000 0
0.020000 0.180000 0
0.040000 0.180000 0
0.060000 0.180000 0
0.080000 0.180000 0
0.100000 0.180000 0
0.120000 0.180000 0
0.140000 0.180000 0
0.160000 0.180000 0
0.180000 0.180000 0
0.200000 0.180000 0
0.220000 0.180000 0
0.240000 0.180000 0
0.260000 0.180000 0
0.280000 0.180000 0
0.300000 0.180000 0
0.320000 0.180000 0
0.340000 0.180000 0
0.360000 0.180000 0
0.380000 0.180000 0
0.400000 0.180000 0
0.420000 0.180000 0
0.440000 0.180000 0
0.460000 0.180000 0
0.480000 0.180000 0
0.500000 0.180000 0
0.520000 0.180000 0
0.540000 0.180000 0
0.560000 0.180000 0
0.580000 0.180000 0
0.600000 0.180000 0
0.620000 0.180000 0
[...]
POINT_DATA 2601 

VECTORS velocity float
0.000000 0.000000 0
0.000000 0.000000 0
-0.000000 0.000000 0
-0.000001 0.000000 0
-0.000001 0.000000 0
-0.000000 0.000000 0
0.000000 0.000000 0
0.000000 0.000000 0
0.000000 0.000000 0
0.000000 0.000000 0
0.000000 0.000000 0
0.000000 0.000000 0
-0.000000 0.000000 0
-0.000000 0.000000 0
-0.000000 0.000000 0
-0.000000 0.000000 0
-0.000000 0.000000 0
-0.000000 0.000000 0
-0.000000 0.000000 0
-0.000000 0.000000 0
-0.000000 0.000000 0
-0.000000 0.000000 0
-0.000000 0.000000 0
-0.000000 0.000000 0
-0.000000 0.000000 0
-0.000000 0.000000 0
-0.000000 0.000000 0
-0.000000 0.000000 0
-0.000000 0.000000 0
-0.000000 0.000000 0
-0.000000 0.000000 0
-0.000000 0.000000 0
-0.000000 0.000000 0
-0.000000 0.000000 0
-0.000000 0.000000 0
-0.000000 0.000000 0
-0.000000 0.000000 0
-0.000000 0.000000 0
-0.000000 0.000000 0
-0.000000 0.000000 0
-0.000000 0.000000 0
0.000000 0.000000 0
0.000000 0.000000 0
0.000000 0.000000 0
0.000000 0.000000 0
0.000000 0.000000 0
0.000000 0.000000 0
0.000000 0.000000 0
-0.000000 0.000000 0
-0.000000 0.000000 0
0.000000 0.000000 0
0.000000 0.000000 0
0.000059 -0.000058 0
0.000077 -0.000022 0
-0.000019 0.000055 0
-0.000258 0.000142 0
-0.000642 0.000225 0
-0.001160 0.000297 0
-0.001794 0.000358 0
-0.002524 0.000405 0
-0.003330 0.000442 0
-0.004192 0.000468 0
-0.005094 0.000485 0
-0.006019 0.000494 0
-0.006953 0.000495 0
-0.007882 0.000490 0
-0.008793 0.000478 0
-0.009675 0.000459 0
-0.010513 0.000435 0
-0.011298 0.000403 0
-0.012015 0.000365 0
-0.012653 0.000321 0
-0.013200 0.000270 0
-0.013645 0.000213 0
-0.013976 0.000150 0
-0.014185 0.000082 0
-0.014262 0.000010 0
-0.014202 -0.000066 0
-0.014000 -0.000143 0
-0.013657 -0.000220 0
-0.013175 -0.000294 0
-0.012559 -0.000365 0
-0.011818 -0.000430 0
-0.010966 -0.000487 0
-0.010020 -0.000534 0
-0.008999 -0.000569 0
-0.007926 -0.000590 0
-0.006826 -0.000597 0
-0.005725 -0.000589 0
-0.004651 -0.000566 0
-0.003630 -0.000528 0
-0.002688 -0.000476 0
-0.001849 -0.000411 0
-0.001131 -0.000336 0
-0.000552 -0.000254 0
-0.000122 -0.000167 0
0.000158 -0.000081 0
0.000291 -0.000001 0
0.000296 0.000064 0
0.000208 0.000097 0
0.000080 0.000080 0
0.000000 0.000000 0
0.000000 -0.000001 0
0.000022 -0.000078 0
-0.000078 0.000076 0
-0.000386 0.000335 0
-0.000937 0.000624 0
-0.001734 0.000903 0
-0.002761 0.001152 0
-0.003990 0.001364 0
-0.005387 0.001535 0
-0.006920 0.001668 0
-0.008555 0.001764 0
-0.010261 0.001827 0
-0.012009 0.001859 0
-0.013772 0.001863 0
-0.015523 0.001840 0
-0.017238 0.001793 0
-0.018894 0.001720 0
-0.020466 0.001623 0
-0.021932 0.001501 0
-0.023269 0.001356 0
-0.024454 0.001186 0
-0.025465 0.000992 0
-0.026282 0.000776 0
-0.026886 0.000540 0
-0.027258 0.000285 0
-0.027387 0.000017 0
-0.027260 -0.000261 0
-0.026873 -0.000544 0
-0.026225 -0.000826 0
-0.025321 -0.001099 0
-0.024173 -0.001357 0
-0.022797 -0.001592 0
-0.021219 -0.001798 0
-0.019468 -0.001967 0
-0.017581 -0.002094 0
-0.015597 -0.002173 0
-0.013562 -0.002201 0
-0.011522 -0.002175 0
-0.009526 -0.002095 0
-0.007621 -0.001963 0
-0.005852 -0.001781 0
-0.004262 -0.001557 0
-0.002884 -0.001296 0
-0.001747 -0.001010 0
-0.000867 -0.000710 0
-0.000250 -0.000413 0
0.000114 -0.000139 0
0.000255 0.000084 0
0.000223 0.000216 0
0.000100 0.000208 0
0.000000 0.000000 0
0.000000 -0.000001 0
-0.000058 0.000019 0
-0.000348 0.000386 0
-0.000938 0.000915 0
-0.001855 0.001492 0
-0.003094 0.002050 0
-0.004634 0.002553 0
-0.006438 0.002983 0
-0.008465 0.003335 0
-0.010672 0.003610 0
-0.013016 0.003809 0
-0.015454 0.003939 0
-0.017946 0.004004 0
-0.020454 0.004009 0
-0.022942 0.003956 0
-0.025376 0.003848 0
-0.027720 0.003687 0
-0.029942 0.003473 0
-0.032009 0.003206 0
-0.033890 0.002887 0
-0.035552 0.002518 0
-0.036966 0.002099 0
-0.038103 0.001633 0
-0.038937 0.001126 0
-0.039446 0.000583 0
-0.039612 0.000011 0
-0.039421 -0.000579 0
-0.038868 -0.001178 0
-0.037951 -0.001771 0
-0.036680 -0.002347 0
-0.035069 -0.002889 0
-0.033145 -0.003384 0
-0.030940 -0.003816 0
-0.028494 -0.004172 0
-0.025858 -0.004440 0
-0.023085 -0.004609 0
-0.020235 -0.004672 0
-0.017373 -0.004625 0
-0.014563 -0.004467 0
-0.011869 -0.004201 0
-0.009352 -0.003835 0
-0.007067 -0.003379 0
-0.005061 -0.002851 0
-0.003373 -0.002271 0
-0.002024 -0.001664 0
-0.001024 -0.001062 0
-0.000361 -0.000505 0
-0.000001 -0.000045 0
0.000115 0.000252 0
0.000073 0.000304 0
0.000000 0.000000 0
0.000000 -0.000000 0
-0.000152 0.000269 0
-0.000668 0.000957 0
-0.001580 0.001842 0
-0.002896 0.002780 0
-0.004599 0.003682 0
-0.006657 0.004496 0
-0.009028 0.005195 0
-0.011662 0.005770 0
-0.014507 0.006219 0
-0.017513 0.006545 0
-0.020629 0.006757 0
-0.023805 0.006859 0
-0.026995 0.006859 0
-0.030154 0.006762 0
-0.033237 0.006570 0
-0.036204 0.006287 0
-0.039011 0.005913 0
-0.041618 0.005449 0
-0.043985 0.004898 0
-0.046074 0.004261 0
-0.047846 0.003543 0
-0.049268 0.002747 0
-0.050308 0.001883 0
-0.050939 0.000960 0
-0.051140 -0.000008 0
-0.050896 -0.001006 0
-0.050199 -0.002014 0
-0.049050 -0.003014 0
-0.047459 -0.003981 0
-0.045447 -0.004892 0
-0.043044 -0.005722 0
-0.040290 -0.006449 0
-0.037235 -0.007049 0
-0.033938 -0.007504 0
-0.030465 -0.007795 0
-0.026888 -0.007912 0
-0.023286 -0.007847 0
-0.019735 -0.007599 0
-0.016313 -0.007174 0
-0.013095 -0.006584 0
-0.010148 -0.005847 0
-0.007530 -0.004990 0
-0.005288 -0.004047 0
-0.003450 -0.003058 0
-0.002030 -0.002076 0
-0.001019 -0.001162 0
-0.000384 -0.000392 0
-0.000065 0.000142 0
0.000023 0.000322 0
0.000000 0.000000 0
0.000000 0.000000 0
-0.000250 0.000687 0
-0.001004 0.001814 0
-0.002257 0.003143 0
-0.003990 0.004510 0
-0.006169 0.005811 0
-0.008750 0.006981 0
-0.011680 0.007987 0
-0.014904 0.008815 0
-0.018362 0.009461 0
-0.021996 0.009930 0
-0.025748 0.010230 0
-0.029562 0.010370 0
-0.033385 0.010358 0
-0.037163 0.010199 0
-0.040846 0.009899 0
-0.044384 0.009461 0
-0.047728 0.008887 0
-0.050830 0.008181 0
-0.053643 0.007343 0
-0.056123 0.006378 0
-0.058227 0.005293 0
-0.059913 0.004095 0
-0.061148 0.002797 0
-0.061899 0.001415 0
-0.062143 -0.000032 0
-0.061863 -0.001521 0
-0.061050 -0.003024 0
-0.059705 -0.004511 0
-0.057841 -0.005949 0
-0.055480 -0.007304 0
-0.052657 -0.008541 0
-0.049418 -0.009625 0
-0.045818 -0.010525 0
-0.041926 -0.011210 0
-0.037817 -0.011658 0
-0.033574 -0.011851 0
-0.029285 -0.011779 0
-0.025039 -0.011439 0
-0.020926 -0.010841 0
-0.017032 -0.010000 0
-0.013436 -0.008944 0
-0.010207 -0.007712 0
-0.007400 -0.006351 0
-0.005052 -0.004921 0
-0.003182 -0.003493 0
-0.001787 -0.002152 0
-0.000838 -0.000999 0
-0.000282 -0.000154 0
-0.000038 0.000239 0
0.000000 0.000000 0
0.000000 0.000000 0
-0.000347 0.001274 0
-0.001341 0.002965 0
-0.002939 0.004828 0
-0.005094 0.006691 0
-0.007752 0.008441 0
-0.010854 0.010007 0
-0.014338 0.011349 0
-0.018138 0.012452 0
-0.022188 0.013311 0
-0.026423 0.013931 0
-0.030781 0.014323 0
-0.035198 0.014496 0
-0.039615 0.014460 0
-0.043974 0.014223 0
-0.048217 0.013791 0
-0.052289 0.013168 0
-0.056135 0.012359 0
-0.059701 0.011365 0
-0.062935 0.010191 0
-0.065786 0.008844 0
-0.068206 0.007333 0
-0.070151 0.005668 0
-0.071581 0.003869 0
-0.072462 0.001956 0
-0.072766 -0.000044 0
-0.072474 -0.002099 0
-0.071577 -0.004172 0
-0.070076 -0.006222 0
-0.067982 -0.008206 0
-0.065321 -0.010075 0
-0.062129 -0.011785 0
-0.058456 -0.013288 0
-0.054364 -0.014541 0
-0.049927 -0.015505 0
-0.045227 -0.016147 0
-0.040356 -0.016445 0
-0.035412 -0.016383 0
-0.030496 -0.015958 0
-0.025708 -0.015181 0
-0.021145 -0.014073 0
-0.016898 -0.012672 0
-0.013047 -0.011027 0
-0.009656 -0.009202 0
-0.006774 -0.007276 0
-0.004427 -0.005341 0
-0.002620 -0.003507 0
-0.001331 -0.001897 0
-0.000515 -0.000658 0
-0.000102 0.000041 0
0.000000 0.000000 0
0.000000 0.000000 0
-0.000439 0.002028 0
-0.001669 0.004407 0
-0.003609 0.006896 0
-0.006183 0.009323 0
-0.009317 0.011571 0
-0.012934 0.013567 0
-0.016961 0.015271 0
-0.021323 0.016664 0
-0.025948 0.017746 0
-0.030763 0.018523 0
-0.035700 0.019005 0
-0.040692 0.019205 0
-0.045675 0.019134 0
-0.050585 0.018801 0
-0.055361 0.018214 0
-0.059940 0.017379 0
-0.064265 0.016299 0
-0.068275 0.014980 0
-0.071915 0.013427 0
-0.075128 0.011649 0
-0.077863 0.009658 0
-0.080072 0.007470 0
-0.081709 0.005108 0
-0.082737 0.002600 0
-0.083127 -0.000019 0
-0.082856 -0.002709 0
-0.081912 -0.005422 0
-0.080295 -0.008106 0
-0.078017 -0.010704 0
-0.075102 -0.013157 0
-0.071587 -0.015406 0
-0.067526 -0.017390 0
-0.062984 -0.019054 0
-0.058038 -0.020348 0
-0.052779 -0.021229 0
-0.047305 -0.021666 0
-0.041723 -0.021639 0
-0.036144 -0.021144 0
-0.030680 -0.020192 0
-0.025441 -0.018809 0
-0.020528 -0.017042 0
-0.016034 -0.014954 0
-0.012036 -0.012623 0
-0.008592 -0.010150 0
-0.005740 -0.007648 0
-0.003495 -0.005249 0
-0.001845 -0.003104 0
-0.000756 -0.001383 0
-0.000166 -0.000276 0
0.000000 0.000000 0
0.000000 0.000000 0
-0.000528 0.002943 0
-0.001985 0.006134 0
-0.004257 0.009342 0
-0.007242 0.012399 0
-0.010841 0.015192 0
-0.014964 0.017651 0
-0.019522 0.019738 0
-0.024431 0.021437 0
-0.029612 0.022750 0
-0.034987 0.023684 0
-0.040483 0.024253 0
-0.046028 0.024472 0
-0.051553 0.024353 0
-0.056993 0.023909 0
-0.062279 0.023146 0
-0.067349 0.022072 0
-0.072138 0.020693 0
-0.076583 0.019015 0
-0.080624 0.017044 0
-0.084201 0.014793 0
-0.087259 0.012276 0
-0.089745 0.009514 0
-0.091610 0.006535 0
-0.092814 0.003374 0
-0.093322 0.000074 0
-0.093110 -0.003314 0
-0.092162 -0.006733 0
-0.090475 -0.010118 0
-0.088059 -0.013399 0
-0.084936 -0.016505 0
-0.081144 -0.019360 0
-0.076736 -0.021891 0
-0.071779 -0.024029 0
-0.066354 -0.025710 0
-0.060557 -0.026881 0
-0.054494 -0.027501 0
-0.048279 -0.027543 0
-0.042034 -0.027001 0
-0.035883 -0.025884 0
-0.029947 -0.024225 0
-0.024343 -0.022079 0
-0.019176 -0.019519 0
-0.014537 -0.016644 0
-0.010500 -0.013571 0
-0.007114 -0.010438 0
-0.004406 -0.007401 0
-0.002376 -0.004637 0
-0.001000 -0.002337 0
-0.000231 -0.000715 0
0.000000 0.000000 0
0.000000 0.000000 0
-0.000612 0.004012 0
-0.002286 0.008136 0
-0.004879 0.012153 0
-0.008261 0.015907 0
-0.012312 0.019293 0
-0.016925 0.022247 0
-0.021998 0.024737 0
-0.027438 0.026754 0
-0.033157 0.028302 0
-0.039073 0.029394 0
-0.045107 0.030046 0
-0.051186 0.030276 0
-0.057235 0.030099 0
-0.063186 0.029527 0
-0.068970 0.028570 0
-0.074518 0.027237 0
-0.079763 0.025533 0
-0.084641 0.023466 0
-0.089087 0.021046 0
-0.093038 0.018285 0
-0.096434 0.015201 0
-0.099219 0.011821 0
-0.101342 0.008178 0
-0.102756 0.004312 0
-0.103423 0.000277 0
-0.103315 -0.003869 0
-0.102410 -0.008057 0
-0.100703 -0.012209 0
-0.098199 -0.016244 0
-0.094917 -0.020072 0
-0.090893 -0.023606 0
-0.086178 -0.026755 0
-0.080840 -0.029436 0
-0.074963 -0.031569 0
-0.068645 -0.033089 0
-0.061999 -0.033944 0
-0.055148 -0.034099 0
-0.048225 -0.033540 0
-0.041365 -0.032279 0
-0.034704 -0.030349 0
-0.028374 -0.027813 0
-0.022496 -0.024759 0
-0.017179 -0.021299 0
-0.012510 -0.017573 0
-0.008555 -0.013742 0
-0.005356 -0.009987 0
-0.002925 -0.006510 0
-0.001250 -0.003529 0
-0.000295 -0.001277 0
0.000000 0.000000 0
0.000000 0.000000 0
-0.000691 0.005229 0
-0.002573 0.010402 0
-0.005472 0.015316 0
-0.009234 0.019832 0
-0.013719 0.023856 0
-0.018803 0.027337 0
-0.024372 0.030251 0
-0.030323 0.032597 0
-0.036562 0.034385 0
-0.042999 0.035635 0
-0.049554 0.036366 0
-0.056147 0.036600 0
-0.062704 0.036354 0
-0.069153 0.035642 0
-0.075421 0.034477 0
-0.081441 0.032866 0
-0.087141 0.030817 0
-0.092454 0.028338 0
-0.097314 0.025441 0
-0.101653 0.022140 0
-0.105410 0.018457 0
-0.108523 0.014422 0
-0.110938 0.010072 0
-0.112603 0.005456 0
-0.113476 0.000633 0
-0.113521 -0.004327 0
-0.112714 -0.009344 0
-0.111042 -0.014329 0
-0.108504 -0.019186 0
-0.105115 -0.023811 0
-0.100907 -0.028099 0
-0.095928 -0.031944 0
-0.090245 -0.035244 0
-0.083941 -0.037905 0
-0.077118 -0.039845 0
-0.069894 -0.040997 0
-0.062401 -0.041317 0
-0.054781 -0.040784 0
-0.047185 -0.039405 0
-0.039763 -0.037216 0
-0.032666 -0.034286 0
-0.026032 -0.030714 0
-0.019989 -0.026631 0
-0.014644 -0.022195 0
-0.010080 -0.017592 0
-0.006356 -0.013032 0
-0.003499 -0.008742 0
-0.001509 -0.004967 0
-0.000360 -0.001965 0
0.000000 0.000000 0
0.000000 0.000000 0
-0.000766 0.006585 0
-0.002843 0.012917 0
-0.006032 0.018814 0
-0.010155 0.024154 0
-0.015054 0.028862 0
-0.020587 0.032900 0
-0.026631 0.036258 0
-0.033071 0.038944 0
-0.039806 0.040978 0
-0.046745 0.042386 0
-0.053799 0.043194 0
-0.060890 0.043426 0
-0.067939 0.043104 0
-0.074872 0.042244 0
-0.081617 0.040858 0
-0.088103 0.038956 0
-0.094258 0.036547 0
-0.100013 0.033639 0
-0.105299 0.030245 0
-0.110046 0.026381 0
-0.114189 0.022071 0
-0.117664 0.017349 0
-0.120410 0.012258 0
-0.122372 0.006851 0
-0.123501 0.001195 0
-0.123756 -0.004631 0
-0.123105 -0.010537 0
-0.121527 -0.016420 0
-0.119016 -0.022170 0
-0.115579 -0.027669 0
-0.111241 -0.032793 0
-0.106045 -0.037418 0
-0.100055 -0.041423 0
-0.093352 -0.044696 0
-0.086042 -0.047136 0
-0.078246 -0.048661 0
-0.070103 -0.049211 0
-0.061768 -0.048756 0
-0.053404 -0.047297 0
-0.045182 -0.044868 0
-0.037269 -0.041545 0
-0.029827 -0.037435 0
-0.023005 -0.032688 0
-0.016932 -0.027482 0
-0.011712 -0.022030 0
-0.007422 -0.016568 0
-0.004108 -0.011356 0
-0.001782 -0.006667 0
-0.000428 -0.002786 0
0.000000 0.000000 0
0.000000 0.000000 0
-0.000836 0.008072 0
-0.003096 0.015667 0
-0.006557 0.022628 0
-0.011019 0.028853 0
-0.016308 0.034288 0
-0.022266 0.038914 0
-0.028758 0.042735 0
-0.035663 0.045773 0
-0.042872 0.048059 0
-0.050288 0.049627 0
-0.057821 0.050511 0
-0.065389 0.050739 0
-0.072914 0.050336 0
-0.080319 0.049321 0
-0.087531 0.047708 0
-0.094479 0.045507 0
-0.101091 0.042727 0
-0.107295 0.039379 0
-0.113020 0.035474 0
-0.118196 0.031030 0
-0.122753 0.026075 0
-0.126624 0.020642 0
-0.129744 0.014780 0
-0.132052 0.008547 0
-0.133493 0.002017 0
-0.134017 -0.004723 0
-0.133586 -0.011573 0
-0.132168 -0.018419 0
-0.129749 -0.025135 0
-0.126328 -0.031586 0
-0.121920 -0.037633 0
-0.116561 -0.043130 0
-0.110310 -0.047937 0
-0.103245 -0.051918 0
-0.095470 -0.054951 0
-0.087111 -0.056936 0
-0.078315 -0.057795 0
-0.069246 -0.057483 0
-0.060084 -0.055991 0
-0.051018 -0.053352 0
-0.042238 -0.049641 0
-0.033930 -0.044978 0
-0.026269 -0.039526 0
-0.019408 -0.033488 0
-0.013477 -0.027102 0
-0.008575 -0.020636 0
-0.004765 -0.014382 0
-0.002076 -0.008647 0
-0.000501 -0.003748 0
0.000000 0.000000 0
0.000000 0.000000 0
-0.000901 0.009681 0
-0.003330 0.018638 0
-0.007044 0.026737 0
-0.011822 0.033905 0
-0.017473 0.040109 0
-0.023829 0.045351 0
-0.030742 0.049655 0
-0.038083 0.053058 0
-0.045738 0.055603 0
-0.053606 0.057335 0
-0.061594 0.058295 0
-0.069618 0.058518 0
-0.077599 0.058033 0
-0.085461 0.056862 0
-0.093130 0.055019 0
-0.100535 0.052516 0
-0.107602 0.049362 0
-0.114261 0.045568 0
-0.120439 0.041146 0
-0.126063 0.036114 0
-0.131063 0.030500 0
-0.135365 0.024341 0
-0.138902 0.017686 0
-0.141607 0.010599 0
-0.143416 0.003160 0
-0.144272 -0.004539 0
-0.144127 -0.012386 0
-0.142941 -0.020256 0
-0.140686 -0.028011 0
-0.137352 -0.035498 0
-0.132942 -0.042559 0
-0.127484 -0.049028 0
-0.121026 -0.054739 0
-0.113644 -0.059536 0
-0.105437 -0.063270 0
-0.096533 -0.065817 0
-0.087085 -0.067077 0
-0.077269 -0.066987 0
-0.067281 -0.065524 0
-0.057329 -0.062714 0
-0.047628 -0.058632 0
-0.038393 -0.053405 0
-0.029826 -0.047210 0
-0.022111 -0.040274 0
-0.015405 -0.032863 0
-0.009834 -0.025281 0
-0.005483 -0.017855 0
-0.002397 -0.010931 0
-0.000581 -0.004862 0
0.000000 -0.000000 0
0.000000 0.000000 0
-0.000960 0.011402 0
-0.003545 0.021810 0
-0.007489 0.031120 0
-0.012557 0.039283 0
-0.018543 0.046296 0
-0.025265 0.052183 0
-0.032567 0.056989 0
-0.040313 0.060769 0
-0.048384 0.063582 0
-0.056674 0.065483 0
-0.065089 0.066523 0
-0.073545 0.066744 0
-0.081961 0.066179 0
-0.090261 0.064852 0
-0.098373 0.062782 0
-0.106225 0.059979 0
-0.113746 0.056454 0
-0.120862 0.052215 0
-0.127502 0.047276 0
-0.133592 0.041654 0
-0.139058 0.035377 0
-0.143826 0.028482 0
-0.147820 0.021021 0
-0.150970 0.013060 0
-0.153204 0.004683 0
-0.154456 -0.004012 0
-0.154668 -0.012904 0
-0.153787 -0.021859 0
-0.151775 -0.030724 0
-0.148606 -0.039331 0
-0.144272 -0.047501 0
-0.138787 -0.055046 0
-0.132190 -0.061777 0
-0.124546 -0.067507 0
-0.115952 -0.072062 0
-0.106532 -0.075288 0
-0.096446 -0.077059 0
-0.085878 -0.077287 0
-0.075041 -0.075931 0
-0.064165 -0.073004 0
-0.053491 -0.068577 0
-0.043264 -0.062781 0
-0.033721 -0.055808 0
-0.025078 -0.047908 0
-0.017528 -0.039378 0
-0.011223 -0.030559 0
-0.006275 -0.021819 0
-0.002752 -0.013549 0
-0.000669 -0.006144 0
0.000000 -0.000000 0
0.000000 0.000000 0
-0.001013 0.013225 0
-0.003737 0.025167 0
-0.007890 0.035750 0
-0.013220 0.044959 0
-0.019507 0.052817 0
-0.026562 0.059376 0
-0.034219 0.064703 0
-0.042335 0.068874 0
-0.050786 0.071963 0
-0.059466 0.074041 0
-0.068277 0.075166 0
-0.077135 0.075390 0
-0.085959 0.074750 0
-0.094676 0.073274 0
-0.103212 0.070983 0
-0.111497 0.067888 0
-0.119461 0.063999 0
-0.127033 0.059325 0
-0.134139 0.053876 0
-0.140707 0.047670 0
-0.146659 0.040733 0
-0.151919 0.033103 0
-0.156408 0.024830 0
-0.160048 0.015983 0
-0.162761 0.006646 0
-0.164472 -0.003075 0
-0.165111 -0.013055 0
-0.164613 -0.023149 0
-0.162926 -0.033192 0
-0.160008 -0.043002 0
-0.155836 -0.052377 0
-0.150410 -0.061109 0
-0.143753 -0.068980 0
-0.135919 -0.075774 0
-0.126996 -0.081284 0
-0.117106 -0.085323 0
-0.106408 -0.087731 0
-0.095098 -0.088391 0
-0.083400 -0.087238 0
-0.071568 -0.084264 0
-0.059872 -0.079533 0
-0.048591 -0.073175 0
-0.037997 -0.065396 0
-0.028349 -0.056467 0
-0.019874 -0.046719 0
-0.012763 -0.036533 0
-0.007158 -0.026326 0
-0.003148 -0.016537 0
-0.000769 -0.007614 0
0.000000 -0.000000 0
0.000000 0.000000 0
-0.001060 0.015139 0
-0.003906 0.028687 0
-0.008242 0.040602 0
-0.013803 0.050901 0
-0.020359 0.059638 0
-0.027709 0.066894 0
-0.035682 0.072761 0
-0.044129 0.077336 0
-0.052923 0.080713 0
-0.061954 0.082974 0
-0.071126 0.084192 0
-0.080351 0.084426 0
-0.089552 0.083719 0
-0.098655 0.082105 0
-0.107590 0.079603 0
-0.116288 0.076229 0
-0.124680 0.071990 0
-0.132697 0.066893 0
-0.140266 0.060950 0
-0.147314 0.054173 0
-0.153764 0.046589 0
-0.159536 0.038231 0
-0.164549 0.029150 0
-0.168719 0.019414 0
-0.171960 0.009107 0
-0.174189 -0.001662 0
-0.175324 -0.012763 0
-0.175287 -0.024045 0
-0.174009 -0.035330 0
-0.171434 -0.046421 0
-0.167520 -0.057099 0
-0.162248 -0.067129 0
-0.155625 -0.076267 0
-0.147689 -0.084264 0
-0.138516 -0.090876 0
-0.128219 -0.095876 0
-0.116956 -0.099067 0
-0.104927 -0.100295 0
-0.092372 -0.099461 0
-0.079565 -0.096532 0
-0.066807 -0.091554 0
-0.054411 -0.084656 0
-0.042695 -0.076050 0
-0.031958 -0.066031 0
-0.022476 -0.054964 0
-0.014478 -0.043275 0
-0.008144 -0.031434 0
-0.003593 -0.019938 0
-0.000881 -0.009292 0
0.000000 -0.000000 0
0.000000 0.000000 0
-0.001099 0.017132 0
-0.004050 0.032349 0
-0.008543 0.045647 0
-0.014302 0.057076 0
-0.021089 0.066723 0
-0.028695 0.074698 0
-0.036941 0.081122 0
-0.045677 0.086115 0
-0.054771 0.089789 0
-0.064112 0.092243 0
-0.073601 0.093563 0
-0.083155 0.093816 0
-0.092694 0.093054 0
-0.102148 0.091313 0
-0.111449 0.088616 0
-0.120530 0.084978 0
-0.129325 0.080408 0
-0.137767 0.074910 0
-0.145785 0.068493 0
-0.153306 0.061168 0
-0.160255 0.052955 0
-0.166549 0.043888 0
-0.172105 0.034013 0
-0.176834 0.023394 0
-0.180645 0.012117 0
-0.183444 0.000289 0
-0.185138 -0.011957 0
-0.185637 -0.024464 0
-0.184855 -0.037046 0
-0.182718 -0.049491 0
-0.179164 -0.061563 0
-0.174155 -0.073004 0
-0.167675 -0.083539 0
-0.159743 -0.092884 0
-0.150417 -0.100755 0
-0.139799 -0.106882 0
-0.128040 -0.111022 0
-0.115340 -0.112975 0
-0.101951 -0.112600 0
-0.088166 -0.109830 0
-0.074316 -0.104687 0
-0.060756 -0.097287 0
-0.047846 -0.087849 0
-0.035939 -0.076685 0
-0.025360 -0.064199 0
-0.016389 -0.050865 0
-0.009249 -0.037211 0
-0.004094 -0.023800 0
-0.001008 -0.011207 0
0.000000 -0.000000 0
0.000000 0.000000 0
-0.001131 0.019190 0
-0.004167 0.036131 0
-0.008789 0.050855 0
-0.014712 0.063447 0
-0.021689 0.074030 0
-0.029508 0.082746 0
-0.037984 0.089743 0
-0.046962 0.095166 0
-0.056308 0.099147 0
-0.065911 0.101804 0
-0.075671 0.103235 0
-0.085506 0.103518 0
-0.095338 0.102713 0
-0.105099 0.100860 0
-0.114723 0.097985 0