# vtk DataFile Version 2.0
generated by CFD-lab course output (written by Tobias Neckel) 
ASCII

DATASET STRUCTURED_GRID
DIMENSIONS  51 51 1 
POINTS 2601 float

0.000000 0.000000 0
0.020000 0.000000 0
0.040000 0.000000 0
0.060000 0.000000 0
0.080000 0.000000 0
0.100000 0.000000 0
0.120000 0.000000 0
0.140000 0.000000 0
0.160000 0.000000 0
0.180000 0.000000 0
0.200000 0.000000 0
0.220000 0.000000 0
0.240000 0.000000 0
0.260000 0.000000 0
0.280000 0.000000 0
0.300000 0.000000 0
0.320000 0.000000 0
0.340000 0.000000 0
0.360000 0.000000 0
0.380000 0.000000 0
0.400000 0.000000 0
0.420000 0.000000 0
0.440000 0.000000 0
0.460000 0.000000 0
0.480000 0.000000 0
0.500000 0.000000 0
0.520000 0.000000 0
0.540000 0.000000 0
0.560000 0.000000 0
0.580000 0.000000 0
0.600000 0.000000 0
0.620000 0.000000 0
0.640000 0.000000 0
0.660000 0.000000 0
0.680000 0.000000 0
0.700000 0.000000 0
0.720000 0.000000 0
0.740000 0.000000 0
0.760000 0.000000 0
0.780000 0.000000 0
0.800000 0.000000 0
0.820000 0.000000 0
0.840000 0.000000 0
0.860000 0.000000 0
0.880000 0.000000 0
0.900000 0.000000 0
0.920000 0.000000 0
0.940000 0.000000 0
0.960000 0.000000 0
0.980000 0.000000 0
1.000000 0.000000 0
0.000000 0.020000 0
0.020000 0.020000 0
0.040000 0.020000 0
0.060000 0.020000 0
0.080000 0.020000 0
0.100000 0.020000 0
0.120000 0.020000 0
0.140000 0.020000 0
0.160000 0.020000 0
0.180000 0.020000 0
0.200000 0.020000 0
0.220000 0.020000 0
0.240000 0.020000 0
0.260000 0.020000 0
0.280000 0.020000 0
0.300000 0.020000 0
0.320000 0.020000 0
0.340000 0.020000 0
0.360000 0.020000 0
0.380000 0.020000 0
0.400000 0.020000 0
0.420000 0.020000 0
0.440000 0.020000 0
0.460000 0.020000 0
0.480000 0.020000 0
0.500000 0.020000 0
0.520000 0.020000 0
0.540000 0.020000 0
0.560000 0.020000 0
0.580000 0.020000 0
0.600000 0.020000 0
0.620000 0.020000 0
0.640000 0.020000 0
0.660000 0.020000 0
0.680000 0.020000 0
0.700000 0.020000 0
0.720000 0.020000 0
0.740000 0.020000 0
0.760000 0.020000 0
0.780000 0.020000 0
0.800000 0.020000 0
0.820000 0.020000 0
0.840000 0.020000 0
0.860000 0.020000 0
0.880000 0.020000 0
0.900000 0.020000 0
0.920000 0.020000 0
0.940000 0.020000 0
0.960000 0.020000 0
0.980000 0.020000 0
1.000000 0.020000 0
0.000000 0.040000 0
0.020000 0.040000 0
0.040000 0.040000 0
0.060000 0.040000 0
0.080000 0.040000 0
0.100000 0.040000 0
0.120000 0.040000 0
0.140000 0.040000 0
0.160000 0.040000 0
0.180000 0.040000 0
0.200000 0.040000 0
0.220000 0.040000 0
0.240000 0.040000 0
0.260000 0.040000 0
0.280000 0.040000 0
0.300000 0.040000 0
0.320000 0.040000 0
0.340000 0.040000 0
0.360000 0.040000 0
0.380000 0.040000 0
0.400000 0.040000 0
0.420000 0.040000 0
0.440000 0.040000 0
0.460000 0.040000 0
0.480000 0.040000 0
0.500000 0.040000 0
0.520000 0.040000 0
0.540000 0.040000 0
0.560000 0.040000 0
0.580000 0.040000 0
0.600000 0.040000 0
0.620000 0.040000 0
0.640000 0.040000 0
0.660000 0.040000 0
0.680000 0.040000 0
0.700000 0.040000 0
0.720000 0.040000 0
0.740000 0.040000 0
0.760000 0.040000 0
0.780000 0.040000 0
0.800000 0.040000 0
0.820000 0.040000 0
0.840000 0.040000 0
0.860000 0.040000 0
0.880000 0.040000 0
0.900000 0.040000 0
0.920000 0.040000 0
0.940000 0.040000 0
0.960000 0.040000 0
0.980000 0.040000 0
1.000000 0.040000 0
0.000000 0.060000 0
0.020000 0.060000 0
0.040000 0.060000 0
0.060000 0.060000 0
0.080000 0.060000 0
0.100000 0.060000 0
0.120000 0.060000 0
0.140000 0.060000 0
0.160000 0.060000 0
0.180000 0.060000 0
0.200000 0.060000 0
0.220000 0.060000 0
0.240000 0.060000 0
0.260000 0.060000 0
0.280000 0.060000 0
0.300000 0.060000 0
0.320000 0.060000 0
0.340000 0.060000 0
0.360000 0.060000 0
0.380000 0.060000 0
0.400000 0.060000 0
0.420000 0.060000 0
0.440000 0.060000 0
0.460000 0.060000 0
0.480000 0.060000 0
0.500000 0.060000 0
0.520000 0.060000 0
0.540000 0.060000 0
0.560000 0.060000 0
0.580000 0.060000 0
0.600000 0.060000 0
0.620000 0.060000 0
0.640000 0.060000 0
0.660000 0.060000 0
0.680000 0.060000 0
0.700000 0.060000 0
0.720000 0.060000 0
0.740000 0.060000 0
0.760000 0.060000 0
0.780000 0.060000 0
0.800000 0.060000 0
0.820000 0.060000 0
0.840000 0.060000 0
0.860000 0.060000 0
0.880000 0.060000 0
0.900000 0.060000 0
0.920000 0.060000 0
0.940000 0.060000 0
0.960000 0.060000 0
0.980000 0.060000 0
1.000000 0.060000 0
0.000000 0.080000 0
0.020000 0.080000 0
0.040000 0.080000 0
0.060000 0.080000 0
0.080000 0.080000 0
0.100000 0.080000 0
0.120000 0.080000 0
0.140000 0.080000 0
0.160000 0.080000 0
0.180000 0.080000 0
0.200000 0.080000 0
0.220000 0.080000 0
0.240000 0.080000 0
0.260000 0.080000 0
0.280000 0.080000 0
0.300000 0.080000 0
0.320000 0.080000 0
0.340000 0.080000 0
0.360000 0.080000 0
0.380000 0.080000 0
0.400000 0.080000 0
0.420000 0.080000 0
0.440000 0.080000 0
0.460000 0.080000 0
0.480000 0.080000 0
0.500000 0.080000 0
0.520000 0.080000 0
0.540000 0.080000 0
0.560000 0.080000 0
0.580000 0.080000 0
0.600000 0.080000 0
0.620000 0.080000 0
0.640000 0.080000 0
0.660000 0.080000 0
0.680000 0.080000 0
0.700000 0.080000 0
0.720000 0.080000 0
0.740000 0.080000 0
0.760000 0.080000 0
0.780000 0.080000 0
0.800000 0.080000 0
0.820000 0.080000 0
0.840000 0.080000 0
0.860000 0.080000 0
0.880000 0.080000 0
0.900000 0.080000 0
0.920000 0.080000 0
0.940000 0.080000 0
0.960000 0.080000 0
0.980000 0.080000 0
1.000000 0.080000 0
0.000000 0.100000 0
0.020000 0.100000 0
0.040000 0.100000 0
0.060000 0.100000 0
0.080000 0.100000 0
0.100000 0.100000 0
0.120000 0.100000 0
0.140000 0.100000 0
0.160000 0.100000 0
0.180000 0.100000 0
0.200000 0.100000 0
0.220000 0.100000 0
0.240000 0.100000 0
0.260000 0.100000 0
0.280000 0.100000 0
0.300000 0.100000 0
0.320000 0.100000 0
0.340000 0.100000 0
0.360000 0.100000 0
0.380000 0.100000 0
0.400000 0.100000 0
0.420000 0.100000 0
0.440000 0.100000 0
0.460000 0.100000 0
0.480000 0.100000 0
0.500000 0.100000 0
0.520000 0.100000 0
0.540000 0.100000 0
0.560000 0.100000 0
0.580000 0.100000 0
0.600000 0.100000 0
0.620000 0.100000 0
0.640000 0.100000 0
0.660000 0.100000 0
0.680000 0.100000 0
0.700000 0.100000 0
0.720000 0.100000 0
0.740000 0.100000 0
0.760000 0.100000 0
0.780000 0.100000 0
0.800000 0.100000 0
0.820000 0.100000 0
0.840000 0.100000 0
0.860000 0.100000 0
0.880000 0.100000 0
0.900000 0.100000 0
0.920000 0.100000 0
0.940000 0.100000 0
0.960000 0.100000 0
0.980000 0.100000 0
1.000000 0.100000 0
0.000000 0.120000 0
0.020000 0.120000 0
0.040000 0.120000 0
0.060000 0.120000 0
0.080000 0.120000 0
0.100000 0.120000 0
0.120000 0.120000 0
0.140000 0.120000 0
0.160000 0.120000 0
0.180000 0.120000 0
0.200000 0.120000 0
0.220000 0.120000 0
0.240000 0.120000 0
0.260000 0.120000 0
0.280000 0.120000 0
0.300000 0.120000 0
0.320000 0.120000 0
0.340000 0.120000 0
0.360000 0.120000 0
0.380000 0.120000 0
0.400000 0.120000 0
0.420000 0.120000 0
0.440000 0.120000 0
0.460000 0.120000 0
0.480000 0.120000 0
0.500000 0.120000 0
0.520000 0.120000 0
0.540000 0.120000 0
0.560000 0.120000 0
0.580000 0.120000 0
0.600000 0.120000 0
0.620000 0.120000 0
0.640000 0.120000 0
0.660000 0.120000 0
0.680000 0.120000 0
0.700000 0.120000 0
0.720000 0.120000 0
0.740000 0.120000 0
0.760000 0.120000 0
0.780000 0.120000 0
0.800000 0.120000 0
0.820000 0.120000 0
0.840000 0.120000 0
0.860000 0.120000 0
0.880000 0.120000 0
0.900000 0.120000 0
0.920000 0.120000 0
0.940000 0.120000 0
0.960000 0.120000 0
0.980000 0.120000 0
1.000000 0.120000 0
0.000000 0.140000 0
0.020000 0.140000 0
0.040000 0.140000 0
0.060000 0.140000 0
0.080000 0.140000 0
0.100000 0.140000 0
0.120000 0.140000 0
0.140000 0.140000 0
0.160000 0.140000 0
0.180000 0.140000 0
0.200000 0.140000 0
0.220000 0.140000 0
0.240000 0.140000 0
0.260000 0.140000 0
0.280000 0.140000 0
0.300000 0.140000 0
0.320000 0.140000 0
0.340000 0.140000 0
0.360000 0.140000 0
0.380000 0.140000 0
0.400000 0.140000 0
0.420000 0.140000 0
0.440000 0.140000 0
0.460000 0.140000 0
0.480000 0.140000 0
0.500000 0.140000 0
0.520000 0.140000 0
0.540000 0.140000 0
0.560000 0.140000 0
0.580000 0.140000 0
0.600000 0.140000 0
0.620000 0.140000 0
0.640000 0.140000 0
0.660000 0.140000 0
0.680000 0.140000 0
0.700000 0.140000 0
0.720000 0.140000 0
0.740000 0.140000 0
0.760000 0.140000 0
0.780000 0.140000 0
0.800000 0.140000 0
0.820000 0.140000 0
0.840000 0.140000 0
0.860000 0.140000 0
0.880000 0.140000 0
0.900000 0.140000 0
0.920000 0.140000 0
0.940000 0.140000 0
0.960000 0.140000 0
0.980000 0.140000 0
1.000000 0.140000 0
0.000000 0.160000 0
0.020000 0.160000 0
0.040000 0.160000 0
0.060000 0.160000 0
0.080000 0.160000 0
0.100000 0.160000 0
0.120000 0.160000 0
0.140000 0.160000 0
0.160000 0.160000 0
0.180000 0.160000 0
0.200000 0.160000 0
0.220000 0.160000 0
0.240000 0.160000 0
0.260000 0.160000 0
0.280000 0.160000 0
0.300000 0.160000 0
0.320000 0.160000 0
0.340000 0.160000 0
0.360000 0.160000 0
0.380000 0.160000 0
0.400000 0.160000 0
0.420000 0.160000 0
0.440000 0.160000 0
0.460000 0.160000 0
0.480000 0.160000 0
0.500000 0.160000 0
0.520000 0.160000 0
0.540000 0.160000 0
0.560000 0.160000 0
0.580000 0.160000 0
0.600000 0.160000 0
0.620000 0.160000 0
0.640000 0.160000 0
0.660000 0.160000 0
0.680000 0.160000 0
0.700000 0.160000 0
0.720000 0.160000 0
0.740000 0.160000 0
0.760000 0.160000 0
0.780000 0.160000 0
0.800000 0.160000 0
0.820000 0.160000 0
0.840000 0.160000 0
0.860000 0.160000 0
0.880000 0.160000 0
0.900000 0.160000 0
0.920000 0.160000 0
0.940000 0.160000 0
0.960000 0.160000 0
0.980000 0.160000 0
1.000000 0.160000 0
0.000000 0.180000 0
0.020000 0.180000 0
0.040000 0.180000 0
0.060000 0.180000 0
0.080000 0.180000 0
0.100000 0.180000 0
0.120000 0.180000 0
0.140000 0.180000 0
0.160000 0.180000 0
0.180000 0.180000 0
0.200000 0.180000 0
0.220000 0.180000 0
0.240000 0.180000 0
0.260000 0.180000 0
0.280000 0.180000 0
0.300000 0.180000 0
0.320000 0.180000 0
0.340000 0.180000 0
0.360000 0.180000 0
0.380000 0.180000 0
0.400000 0.180000 0
0.420000 0.180000 0
0.440000 0.180000 0
0.460000 0.180000 0
0.480000 0.180000 0
0.500000 0.180000 0
0.520000 0.180000 0
0.540000 0.180000 0
0.560000 0.180000 0
0.580000 0.180000 0
0.600000 0.180000 0
0.620000 0.180000 0
[...]
POINT_DATA 2601 

VECTORS velocity float
0.000000 0.000000 0
0.000001 0.000000 0
0.000001 0.000000 0
0.000000 0.000000 0
-0.000000 0.000000 0
-0.000000 0.000000 0
-0.000000 0.000000 0
-0.000000 0.000000 0
0.000000 0.000000 0
0.000000 0.000000 0
0.000000 0.000000 0
0.000000 0.000000 0
0.000000 0.000000 0
0.000000 0.000000 0
0.000000 0.000000 0
-0.000000 0.000000 0
-0.000000 0.000000 0
-0.000000 0.000000 0
-0.000000 0.000000 0
-0.000000 0.000000 0
-0.000000 0.000000 0
-0.000000 0.000000 0
-0.000000 0.000000 0
-0.000000 0.000000 0
-0.000000 0.000000 0
-0.000000 0.000000 0
-0.000000 0.000000 0
-0.000000 0.000000 0
-0.000000 0.000000 0
-0.000000 0.000000 0
-0.000000 0.000000 0
-0.000000 0.000000 0
-0.000000 0.000000 0
-0.000000 0.000000 0
-0.000000 0.000000 0
-0.000000 0.000000 0
-0.000000 0.000000 0
-0.000000 0.000000 0
-0.000000 0.000000 0
-0.000000 0.000000 0
0.000000 0.000000 0
0.000000 0.000000 0
0.000000 0.000000 0
0.000000 0.000000 0
0.000000 0.000000 0
0.000000 0.000000 0
0.000000 0.000000 0
0.000000 0.000000 0
0.000000 0.000000 0
0.000000 0.000000 0
0.000000 0.000000 0
0.000000 0.000001 0
0.000060 -0.000058 0
0.000079 -0.000021 0
-0.000017 0.000056 0
-0.000257 0.000142 0
-0.000643 0.000225 0
-0.001163 0.000297 0
-0.001798 0.000358 0
-0.002530 0.000406 0
-0.003338 0.000443 0
-0.004203 0.000469 0
-0.005108 0.000487 0
-0.006036 0.000496 0
-0.006973 0.000497 0
-0.007905 0.000492 0
-0.008820 0.000479 0
-0.009704 0.000461 0
-0.010546 0.000436 0
-0.011332 0.000404 0
-0.012052 0.000366 0
-0.012692 0.000322 0
-0.013241 0.000271 0
-0.013687 0.000213 0
-0.014019 0.000150 0
-0.014228 0.000082 0
-0.014305 0.000009 0
-0.014244 -0.000066 0
-0.014041 -0.000143 0
-0.013696 -0.000220 0
-0.013212 -0.000296 0
-0.012593 -0.000367 0
-0.011849 -0.000432 0
-0.010994 -0.000489 0
-0.010044 -0.000536 0
-0.009020 -0.000571 0
-0.007943 -0.000592 0
-0.006839 -0.000599 0
-0.005735 -0.000591 0
-0.004658 -0.000567 0
-0.003634 -0.000529 0
-0.002690 -0.000477 0
-0.001848 -0.000412 0
-0.001130 -0.000337 0
-0.000550 -0.000254 0
-0.000119 -0.000167 0
0.000161 -0.000080 0
0.000294 -0.000000 0
0.000298 0.000064 0
0.000209 0.000098 0
0.000081 0.000081 0
0.000000 -0.000000 0
0.000000 0.000001 0
0.000023 -0.000078 0
-0.000077 0.000076 0
-0.000386 0.000335 0
-0.000939 0.000625 0
-0.001738 0.000905 0
-0.002768 0.001155 0
-0.004000 0.001368 0
-0.005402 0.001540 0
-0.006940 0.001673 0
-0.008580 0.001770 0
-0.010292 0.001833 0
-0.012046 0.001865 0
-0.013814 0.001869 0
-0.015571 0.001847 0
-0.017292 0.001799 0
-0.018953 0.001726 0
-0.020531 0.001628 0
-0.022002 0.001506 0
-0.023343 0.001360 0
-0.024531 0.001189 0
-0.025546 0.000995 0
-0.026365 0.000778 0
-0.026970 0.000541 0
-0.027343 0.000286 0
-0.027471 0.000016 0
-0.027343 -0.000263 0
-0.026953 -0.000547 0
-0.026302 -0.000830 0
-0.025394 -0.001104 0
-0.024241 -0.001363 0
-0.022860 -0.001599 0
-0.021275 -0.001805 0
-0.019518 -0.001975 0
-0.017623 -0.002102 0
-0.015633 -0.002181 0
-0.013591 -0.002208 0
-0.011544 -0.002182 0
-0.009542 -0.002101 0
-0.007632 -0.001968 0
-0.005859 -0.001786 0
-0.004264 -0.001560 0
-0.002884 -0.001299 0
-0.001744 -0.001011 0
-0.000863 -0.000710 0
-0.000246 -0.000412 0
0.000118 -0.000138 0
0.000257 0.000085 0
0.000225 0.000217 0
0.000100 0.000209 0
0.000000 0.000000 0
0.000000 0.000000 0
-0.000057 0.000019 0
-0.000348 0.000386 0
-0.000940 0.000916 0
-0.001860 0.001495 0
-0.003103 0.002055 0
-0.004647 0.002560 0
-0.006457 0.002993 0
-0.008491 0.003346 0
-0.010706 0.003621 0
-0.013057 0.003822 0
-0.015503 0.003952 0
-0.018004 0.004018 0
-0.020521 0.004022 0
-0.023017 0.003969 0
-0.025459 0.003861 0
-0.027811 0.003699 0
-0.030040 0.003484 0
-0.032115 0.003216 0
-0.034001 0.002896 0
-0.035668 0.002525 0
-0.037086 0.002104 0
-0.038225 0.001637 0
-0.039061 0.001128 0
-0.039571 0.000583 0
-0.039736 0.000009 0
-0.039543 -0.000584 0
-0.038986 -0.001184 0
-0.038065 -0.001780 0
-0.036787 -0.002357 0
-0.035170 -0.002901 0
-0.033238 -0.003397 0
-0.031023 -0.003831 0
-0.028569 -0.004188 0
-0.025923 -0.004456 0
-0.023140 -0.004625 0
-0.020281 -0.004687 0
-0.017410 -0.004639 0
-0.014591 -0.004480 0
-0.011889 -0.004213 0
-0.009365 -0.003844 0
-0.007075 -0.003387 0
-0.005065 -0.002857 0
-0.003373 -0.002274 0
-0.002022 -0.001665 0
-0.001021 -0.001062 0
-0.000357 -0.000504 0
0.000002 -0.000043 0
0.000116 0.000255 0
0.000074 0.000305 0
0.000000 0.000000 0
0.000000 -0.000000 0
-0.000153 0.000269 0
-0.000670 0.000959 0
-0.001585 0.001846 0
-0.002905 0.002788 0
-0.004613 0.003693 0
-0.006678 0.004510 0
-0.009057 0.005212 0
-0.011700 0.005789 0
-0.014555 0.006239 0
-0.017572 0.006568 0
-0.020698 0.006780 0
-0.023885 0.006883 0
-0.027086 0.006883 0
-0.030256 0.006785 0
-0.033350 0.006592 0
-0.036326 0.006307 0
-0.039143 0.005932 0
-0.041758 0.005467 0
-0.044133 0.004913 0
-0.046227 0.004274 0
-0.048004 0.003552 0
-0.049429 0.002754 0
-0.050471 0.001886 0
-0.051103 0.000960 0
-0.051303 -0.000012 0
-0.051055 -0.001013 0
-0.050354 -0.002026 0
-0.049198 -0.003028 0
-0.047600 -0.003998 0
-0.045580 -0.004912 0
-0.043166 -0.005745 0
-0.040401 -0.006474 0
-0.037335 -0.007076 0
-0.034026 -0.007530 0
-0.030541 -0.007822 0
-0.026952 -0.007938 0
-0.023338 -0.007871 0
-0.019776 -0.007622 0
-0.016345 -0.007194 0
-0.013118 -0.006601 0
-0.010163 -0.005861 0
-0.007539 -0.005000 0
-0.005292 -0.004053 0
-0.003451 -0.003062 0
-0.002029 -0.002077 0
-0.001017 -0.001161 0
-0.000382 -0.000389 0
-0.000064 0.000146 0
0.000024 0.000325 0
0.000000 0.000000 0
0.000000 -0.000000 0
-0.000252 0.000688 0
-0.001008 0.001818 0
-0.002265 0.003152 0
-0.004003 0.004524 0
-0.006189 0.005829 0
-0.008779 0.007004 0
-0.011720 0.008014 0
-0.014955 0.008845 0
-0.018425 0.009493 0
-0.022072 0.009964 0
-0.025838 0.010266 0
-0.029665 0.010406 0
-0.033501 0.010393 0
-0.037292 0.010233 0
-0.040988 0.009932 0
-0.044537 0.009492 0
-0.047892 0.008916 0
-0.051004 0.008206 0
-0.053826 0.007365 0
-0.056313 0.006397 0
-0.058421 0.005307 0
-0.060112 0.004105 0
-0.061349 0.002802 0
-0.062100 0.001414 0
-0.062342 -0.000039 0
-0.062058 -0.001533 0
-0.061240 -0.003041 0
-0.059888 -0.004533 0
-0.058015 -0.005976 0
-0.055643 -0.007335 0
-0.052809 -0.008576 0
-0.049556 -0.009662 0
-0.045944 -0.010563 0
-0.042038 -0.011250 0
-0.037915 -0.011698 0
-0.033657 -0.011890 0
-0.029354 -0.011816 0
-0.025095 -0.011473 0
-0.020970 -0.010871 0
-0.017066 -0.010026 0
-0.013460 -0.008966 0
-0.010223 -0.007728 0
-0.007409 -0.006363 0
-0.005057 -0.004928 0
-0.003184 -0.003496 0
-0.001787 -0.002152 0
-0.000837 -0.000996 0
-0.000281 -0.000150 0
-0.000037 0.000242 0
0.000000 0.000000 0
0.000000 -0.000001 0
-0.000349 0.001276 0
-0.001346 0.002973 0
-0.002950 0.004842 0
-0.005112 0.006713 0
-0.007779 0.008469 0
-0.010893 0.010040 0
-0.014389 0.011388 0
-0.018202 0.012495 0
-0.022267 0.013357 0
-0.026518 0.013980 0
-0.030891 0.014373 0
-0.035324 0.014546 0
-0.039756 0.014509 0
-0.044130 0.014271 0
-0.048388 0.013837 0
-0.052473 0.013212 0
-0.056331 0.012398 0
-0.059908 0.011400 0
-0.063151 0.010222 0
-0.066010 0.008870 0
-0.068436 0.007352 0
-0.070385 0.005681 0
-0.071817 0.003874 0
-0.072698 0.001954 0
-0.073000 -0.000054 0
-0.072704 -0.002116 0
-0.071801 -0.004196 0
-0.070291 -0.006253 0
-0.068187 -0.008243 0
-0.065514 -0.010118 0
-0.062309 -0.011832 0
-0.058622 -0.013339 0
-0.054515 -0.014594 0
-0.050062 -0.015560 0
-0.045346 -0.016202 0
-0.040459 -0.016498 0
-0.035499 -0.016434 0
-0.030568 -0.016006 0
-0.025765 -0.015224 0
-0.021190 -0.014111 0
-0.016932 -0.012703 0
-0.013071 -0.011051 0
-0.009672 -0.009220 0
-0.006784 -0.007288 0
-0.004432 -0.005347 0
-0.002622 -0.003508 0
-0.001331 -0.001895 0
-0.000515 -0.000654 0
-0.000102 0.000044 0
0.000000 0.000000 0
0.000000 -0.000000 0
-0.000442 0.002033 0
-0.001675 0.004420 0
-0.003622 0.006918 0
-0.006206 0.009354 0
-0.009351 0.011610 0
-0.012982 0.013614 0
-0.017024 0.015324 0
-0.021402 0.016723 0
-0.026043 0.017808 0
-0.030875 0.018588 0
-0.035830 0.019071 0
-0.040840 0.019271 0
-0.045840 0.019199 0
-0.050767 0.018865 0
-0.055558 0.018275 0
-0.060153 0.017436 0
-0.064491 0.016351 0
-0.068513 0.015026 0
-0.072163 0.013467 0
-0.075385 0.011682 0
-0.078127 0.009682 0
-0.080339 0.007486 0
-0.081978 0.005114 0
-0.083007 0.002596 0
-0.083394 -0.000033 0
-0.083118 -0.002732 0
-0.082167 -0.005454 0
-0.080542 -0.008147 0
-0.078252 -0.010753 0
-0.075324 -0.013213 0
-0.071795 -0.015468 0
-0.067718 -0.017457 0
-0.063159 -0.019124 0
-0.058196 -0.020419 0
-0.052919 -0.021301 0
-0.047427 -0.021736 0
-0.041828 -0.021707 0
-0.036232 -0.021207 0
-0.030752 -0.020249 0
-0.025498 -0.018860 0
-0.020572 -0.017085 0
-0.016066 -0.014988 0
-0.012058 -0.012650 0
-0.008607 -0.010168 0
-0.005749 -0.007658 0
-0.003500 -0.005253 0
-0.001847 -0.003103 0
-0.000756 -0.001380 0
-0.000166 -0.000273 0
0.000000 0.000000 0
0.000000 -0.000000 0
-0.000530 0.002952 0
-0.001992 0.006154 0
-0.004273 0.009373 0
-0.007269 0.012441 0
-0.010882 0.015245 0
-0.015020 0.017713 0
-0.019595 0.019808 0
-0.024523 0.021513 0
-0.029722 0.022830 0
-0.035117 0.023767 0
-0.040632 0.024337 0
-0.046197 0.024556 0
-0.051741 0.024436 0
-0.057199 0.023989 0
-0.062502 0.023223 0
-0.067588 0.022144 0
-0.072391 0.020759 0
-0.076850 0.019073 0
-0.080902 0.017094 0
-0.084488 0.014833 0
-0.087553 0.012305 0
-0.090043 0.009532 0
-0.091911 0.006542 0
-0.093114 0.003369 0
-0.093620 0.000057 0
-0.093403 -0.003343 0
-0.092447 -0.006773 0
-0.090751 -0.010169 0
-0.088322 -0.013461 0
-0.085186 -0.016575 0
-0.081378 -0.019438 0
-0.076953 -0.021975 0
-0.071978 -0.024117 0
-0.066535 -0.025800 0
-0.060719 -0.026971 0
-0.054636 -0.027590 0
-0.048402 -0.027629 0
-0.042138 -0.027081 0
-0.035969 -0.025957 0
-0.030017 -0.024291 0
-0.024397 -0.022135 0
-0.019217 -0.019565 0
-0.014567 -0.016680 0
-0.010520 -0.013597 0
-0.007127 -0.010454 0
-0.004413 -0.007409 0
-0.002380 -0.004638 0
-0.001002 -0.002335 0
-0.000231 -0.000712 0
0.000000 0.000000 0
0.000000 0.000000 0
-0.000614 0.004025 0
-0.002295 0.008164 0
-0.004898 0.012195 0
-0.008293 0.015963 0
-0.012360 0.019361 0
-0.016990 0.022326 0
-0.022082 0.024826 0
-0.027542 0.026850 0
-0.033282 0.028402 0
-0.039219 0.029497 0
-0.045275 0.030151 0
-0.051374 0.030380 0
-0.057444 0.030201 0
-0.063415 0.029626 0
-0.069216 0.028664 0
-0.074781 0.027325 0
-0.080042 0.025613 0
-0.084934 0.023537 0
-0.089392 0.021106 0
-0.093352 0.018333 0
-0.096755 0.015237 0
-0.099545 0.011843 0
-0.101670 0.008186 0
-0.103084 0.004306 0
-0.103749 0.000256 0
-0.103635 -0.003905 0
-0.102723 -0.008106 0
-0.101005 -0.012272 0
-0.098488 -0.016318 0
-0.095192 -0.020157 0
-0.091152 -0.023700 0
-0.086419 -0.026857 0
-0.081063 -0.029542 0
-0.075166 -0.031679 0
-0.068827 -0.033200 0
-0.062161 -0.034053 0
-0.055289 -0.034204 0
-0.048346 -0.033640 0
-0.041466 -0.032370 0
-0.034787 -0.030431 0
-0.028440 -0.027884 0
-0.022547 -0.024818 0
-0.017216 -0.021346 0
-0.012536 -0.017608 0
-0.008572 -0.013765 0
-0.005366 -0.010000 0
-0.002930 -0.006515 0
-0.001252 -0.003528 0
-0.000295 -0.001275 0
0.000000 0.000000 0
0.000000 0.000000 0
-0.000694 0.005247 0
-0.002583 0.010438 0
-0.005493 0.015371 0
-0.009270 0.019903 0
-0.013772 0.023942 0
-0.018876 0.027435 0
-0.024466 0.030360 0
-0.030439 0.032713 0
-0.036700 0.034507 0
-0.043160 0.035760 0
-0.049737 0.036492 0
-0.056353 0.036725 0
-0.062932 0.036477 0
-0.069401 0.035761 0
-0.075689 0.034589 0
-0.081726 0.032970 0
-0.087443 0.030912 0
-0.092770 0.028422 0
-0.097642 0.025512 0
-0.101992 0.022197 0
-0.105756 0.018499 0
-0.108874 0.014447 0
-0.111291 0.010081 0
-0.112956 0.005448 0
-0.113826 0.000608 0
-0.113866 -0.004369 0
-0.113051 -0.009402 0
-0.111368 -0.014403 0
-0.108818 -0.019274 0
-0.105415 -0.023912 0
-0.101190 -0.028210 0
-0.096193 -0.032064 0
-0.090490 -0.035371 0
-0.084165 -0.038036 0
-0.077320 -0.039976 0
-0.070075 -0.041128 0
-0.062559 -0.041444 0
-0.054918 -0.040904 0
-0.047301 -0.039516 0
-0.039859 -0.037317 0
-0.032743 -0.034374 0
-0.026092 -0.030789 0
-0.020034 -0.026691 0
-0.014676 -0.022241 0
-0.010102 -0.017624 0
-0.006369 -0.013052 0
-0.003506 -0.008752 0
-0.001512 -0.004970 0
-0.000361 -0.001964 0
0.000000 0.000000 0
0.000000 0.000000 0
-0.000769 0.006609 0
-0.002854 0.012963 0
-0.006056 0.018882 0
-0.010195 0.024242 0
-0.015112 0.028967 0
-0.020667 0.033019 0
-0.026732 0.036388 0
-0.033196 0.039083 0
-0.039956 0.041123 0
-0.046918 0.042535 0
-0.053997 0.043344 0
-0.061110 0.043575 0
-0.068182 0.043249 0
-0.075137 0.042383 0
-0.081902 0.040990 0
-0.088407 0.039078 0
-0.094579 0.036657 0
-0.100349 0.033736 0
-0.105647 0.030327 0
-0.110405 0.026446 0
-0.114555 0.022119 0
-0.118035 0.017379 0
-0.120784 0.012268 0
-0.122746 0.006841 0
-0.123873 0.001166 0
-0.124123 -0.004680 0
-0.123464 -0.010604 0
-0.121876 -0.016505 0
-0.119352 -0.022272 0
-0.115900 -0.027785 0
-0.111545 -0.032921 0
-0.106331 -0.037557 0
-0.100320 -0.041570 0
-0.093597 -0.044848 0
-0.086264 -0.047290 0
-0.078445 -0.048814 0
-0.070279 -0.049361 0
-0.061921 -0.048899 0
-0.053534 -0.047429 0
-0.045290 -0.044989 0
-0.037357 -0.041651 0
-0.029896 -0.037527 0
-0.023057 -0.032763 0
-0.016970 -0.027540 0
-0.011738 -0.022072 0
-0.007438 -0.016596 0
-0.004117 -0.011372 0
-0.001786 -0.006674 0
-0.000429 -0.002787 0
0.000000 -0.000000 0
0.000000 0.000000 0
-0.000839 0.008101 0
-0.003108 0.015725 0
-0.006582 0.022711 0
-0.011062 0.028959 0
-0.016371 0.034414 0
-0.022352 0.039055 0
-0.028868 0.042889 0
-0.035797 0.045936 0
-0.043031 0.048229 0
-0.050472 0.049801 0
-0.058030 0.050685 0
-0.065622 0.050911 0
-0.073170 0.050503 0
-0.080597 0.049482 0
-0.087831 0.047859 0
-0.094798 0.045647 0
-0.101427 0.042854 0
-0.107646 0.039490 0
-0.113384 0.035567 0
-0.118570 0.031105 0
-0.123136 0.026130 0
-0.127012 0.020676 0
-0.130135 0.014792 0
-0.132444 0.008537 0
-0.133882 0.001984 0
-0.134402 -0.004778 0
-0.133962 -0.011649 0
-0.132535 -0.018515 0
-0.130104 -0.025250 0
-0.126668 -0.031718 0
-0.122243 -0.037779 0
-0.116866 -0.043289 0
-0.110594 -0.048105 0
-0.103508 -0.052092 0
-0.095710 -0.055129 0
-0.087328 -0.057113 0
-0.078507 -0.057968 0
-0.069414 -0.057649 0
-0.060228 -0.056147 0
-0.051139 -0.053494 0
-0.042337 -0.049768 0
-0.034009 -0.045088 0
-0.026329 -0.039618 0
-0.019452 -0.033560 0
-0.013507 -0.027156 0
-0.008594 -0.020673 0
-0.004775 -0.014404 0
-0.002080 -0.008658 0
-0.000502 -0.003751 0
0.000000 -0.000000 0
0.000000 0.000000 0
-0.000904 0.009717 0
-0.003343 0.018707 0
-0.007071 0.026836 0
-0.011867 0.034030 0
-0.017540 0.040256 0
-0.023919 0.045516 0
-0.030857 0.049834 0
-0.038223 0.053247 0
-0.045904 0.055799 0
-0.053798 0.057534 0
-0.061812 0.058494 0
-0.069861 0.058715 0
-0.077865 0.058224 0
-0.085750 0.057044 0
-0.093441 0.055190 0
-0.100865 0.052674 0
-0.107950 0.049505 0
-0.114624 0.045693 0
-0.120815 0.041251 0
-0.126450 0.036198 0
-0.131457 0.030561 0
-0.135766 0.024378 0
-0.139306 0.017699 0
-0.142011 0.010588 0
-0.143817 0.003123 0
-0.144670 -0.004600 0
-0.144518 -0.012471 0
-0.143322 -0.020364 0
-0.141056 -0.028139 0
-0.137707 -0.035646 0
-0.133281 -0.042723 0
-0.127805 -0.049206 0
-0.121327 -0.054928 0
-0.113923 -0.059732 0
-0.105693 -0.063471 0
-0.096765 -0.066018 0
-0.087292 -0.067275 0
-0.077451 -0.067177 0
-0.067438 -0.065704 0
-0.057462 -0.062880 0
-0.047738 -0.058781 0
-0.038481 -0.053535 0
-0.029893 -0.047320 0
-0.022161 -0.040362 0
-0.015440 -0.032931 0
-0.009856 -0.025328 0
-0.005495 -0.017885 0
-0.002402 -0.010946 0
-0.000582 -0.004867 0
0.000000 -0.000000 0
0.000000 0.000000 0
-0.000963 0.011445 0
-0.003558 0.021891 0
-0.007517 0.031235 0
-0.012605 0.039428 0
-0.018612 0.046465 0
-0.025358 0.052372 0
-0.032686 0.057193 0
-0.040458 0.060984 0
-0.048555 0.063804 0
-0.056871 0.065708 0
-0.065313 0.066748 0
-0.073793 0.066965 0
-0.082233 0.066393 0
-0.090557 0.065057 0
-0.098690 0.062973 0
-0.106562 0.060156 0
-0.114099 0.056613 0
-0.121231 0.052354 0
-0.127884 0.047393 0
-0.133985 0.041748 0
-0.139459 0.035446 0
-0.144233 0.028525 0
-0.148231 0.021037 0
-0.151381 0.013048 0
-0.153613 0.004643 0
-0.154862 -0.004078 0
-0.155067 -0.012997 0
-0.154178 -0.021977 0
-0.152155 -0.030865 0
-0.148972 -0.039493 0
-0.144623 -0.047682 0
-0.139121 -0.055243 0
-0.132504 -0.061986 0
-0.124839 -0.067726 0
-0.116222 -0.072287 0
-0.106778 -0.075514 0
-0.096667 -0.077282 0
-0.086074 -0.077503 0
-0.075211 -0.076136 0
-0.064309 -0.073194 0
-0.053611 -0.068749 0
-0.043361 -0.062933 0
-0.033796 -0.055938 0
-0.025134 -0.048014 0
-0.017566 -0.039461 0
-0.011247 -0.030618 0
-0.006289 -0.021858 0
-0.002758 -0.013570 0
-0.000671 -0.006152 0
0.000000 -0.000000 0
0.000000 0.000000 0
-0.001017 0.013275 0
-0.003751 0.025260 0
-0.007919 0.035882 0
-0.013268 0.045124 0
-0.019578 0.053009 0
-0.026657 0.059589 0
-0.034339 0.064933 0
-0.042481 0.069116 0
-0.050959 0.072212 0
-0.059665 0.074292 0
-0.068503 0.075416 0
-0.077386 0.075635 0
-0.086235 0.074987 0
-0.094973 0.073501 0
-0.103531 0.071195 0
-0.111835 0.068083 0
-0.119817 0.064175 0
-0.127403 0.059478 0
-0.134523 0.054005 0
-0.141101 0.047773 0
-0.147061 0.040809 0
-0.152327 0.033150 0
-0.156820 0.024848 0
-0.160461 0.015971 0
-0.163173 0.006604 0
-0.164881 -0.003146 0
-0.165514 -0.013154 0
-0.165009 -0.023276 0
-0.163311 -0.033345 0
-0.160381 -0.043178 0
-0.156195 -0.052574 0
-0.150752 -0.061324 0
-0.144076 -0.069210 0
-0.136222 -0.076015 0
-0.127277 -0.081532 0
-0.117363 -0.085573 0
-0.106641 -0.087979 0
-0.095304 -0.088633 0
-0.083581 -0.087469 0
-0.071723 -0.084480 0
-0.060001 -0.079730 0
-0.048695 -0.073350 0
-0.038079 -0.065547 0
-0.028410 -0.056592 0
-0.019917 -0.046817 0
-0.012791 -0.036606 0
-0.007173 -0.026374 0
-0.003155 -0.016565 0
-0.000770 -0.007625 0
0.000000 -0.000000 0
0.000000 0.000000 0
-0.001063 0.015196 0
-0.003920 0.028793 0
-0.008272 0.040752 0
-0.013852 0.051087 0
-0.020430 0.059854 0
-0.027804 0.067133 0
-0.035802 0.073017 0
-0.044275 0.077605 0
-0.053096 0.080988 0
-0.062154 0.083252 0
-0.071351 0.084468 0
-0.080601 0.084696 0
-0.089826 0.083980 0
-0.098951 0.082353 0
-0.107907 0.079835 0
-0.116624 0.076442 0
-0.125032 0.072181 0
-0.133064 0.067061 0
-0.140645 0.061091 0
-0.147704 0.054286 0
-0.154162 0.046672 0
-0.159940 0.038283 0
-0.164957 0.029171 0
-0.169128 0.019402 0
-0.172369 0.009064 0
-0.174595 -0.001737 0
-0.175725 -0.012869 0
-0.175681 -0.024180 0
-0.174394 -0.035493 0
-0.171808 -0.046609 0
-0.167881 -0.057311 0
-0.162594 -0.067361 0
-0.155953 -0.076516 0
-0.147998 -0.084525 0
-0.138804 -0.091145 0
-0.128484 -0.096150 0
-0.117197 -0.099341 0
-0.105143 -0.100563 0
-0.092562 -0.099718 0
-0.079729 -0.096774 0
-0.066944 -0.091776 0
-0.054523 -0.084855 0
-0.042783 -0.076223 0
-0.032025 -0.066176 0
-0.022523 -0.055080 0
-0.014508 -0.043362 0
-0.008161 -0.031494 0
-0.003601 -0.019973 0
-0.000883 -0.009307 0
0.000000 -0.000000 0
0.000000 0.000000 0
-0.001103 0.017195 0
-0.004064 0.032469 0
-0.008572 0.045814 0
-0.014351 0.057282 0
-0.021159 0.066961 0
-0.028788 0.074962 0
-0.037060 0.081405 0
-0.045821 0.086410 0
-0.054941 0.090090 0
-0.064307 0.092547 0
-0.073822 0.093864 0
-0.083400 0.094110 0
-0.092962 0.093337 0
-0.102438 0.091582 0
-0.111758 0.088867 0
-0.120857 0.085209 0
-0.129668 0.080615 0
-0.138124 0.075091 0
-0.146154 0.068645 0
-0.153686 0.061290 0
-0.160642 0.053045 0
-0.166942 0.043945 0
-0.172502 0.034036 0
-0.177233 0.023383 0
-0.181043 0.012072 0
-0.183840 0.000210 0
-0.185530 -0.012069 0
-0.186023 -0.024607 0
-0.185233 -0.037218 0
-0.183086 -0.049691 0
-0.179522 -0.061789 0
-0.174498 -0.073252 0
-0.168002 -0.083805 0
-0.160053 -0.093164 0
-0.150708 -0.101046 0
-0.140068 -0.107179 0
-0.128286 -0.111320 0
-0.115562 -0.113268 0
-0.102147 -0.112883 0
-0.088336 -0.110098 0
-0.074460 -0.104935 0
-0.060874 -0.097512 0
-0.047940 -0.088045 0
-0.036010 -0.076852 0
-0.025410 -0.064333 0
-0.016422 -0.050967 0
-0.009267 -0.037282 0
-0.004103 -0.023843 0
-0.001010 -0.011226 0
0.000000 -0.000000 0
0.000000 0.000000 0
-0.001135 0.019260 0
-0.004181 0.036262 0
-0.008817 0.051038 0
-0.014758 0.063673 0
-0.021757 0.074291 0
-0.029598 0.083034 0
-0.038098 0.090051 0
-0.047101 0.095486 0
-0.056473 0.099474 0
-0.066100 0.102133 0
-0.075885 0.103560 0
-0.085742 0.103836 0
-0.095596 0.103018 0
-0.105377 0.101149 0
-0.115021 0.098255 0