# vtk DataFile Version 2.0
generated by CFD-lab course output (written by Tobias Neckel) 
ASCII

DATASET STRUCTURED_GRID
DIMENSIONS  51 51 1 
POINTS 2601 float

0.000000 0.000000 0
0.020000 0.000000 0
0.040000 0.000000 0
0.060000 0.000000 0
0.080000 0.000000 0
0.100000 0.000000 0
0.120000 0.000000 0
0.140000 0.000000 0
0.160000 0.000000 0
0.180000 0.000000 0
0.200000 0.000000 0
0.220000 0.000000 0
0.240000 0.000000 0
0.260000 0.000000 0
0.280000 0.000000 0
0.300000 0.000000 0
0.320000 0.000000 0
0.340000 0.000000 0
0.360000 0.000000 0
0.380000 0.000000 0
0.400000 0.000000 0
0.420000 0.000000 0
0.440000 0.000000 0
0.460000 0.000000 0
0.480000 0.000000 0
0.500000 0.000000 0
0.520000 0.000000 0
0.540000 0.000000 0
0.560000 0.000000 0
0.580000 0.000000 0
0.600000 0.000000 0
0.620000 0.000000 0
0.640000 0.000000 0
0.660000 0.000000 0
0.680000 0.000000 0
0.700000 0.000000 0
0.720000 0.000000 0
0.740000 0.000000 0
0.760000 0.000000 0
0.780000 0.000000 0
0.800000 0.000000 0
0.820000 0.000000 0
0.840000 0.000000 0
0.860000 0.000000 0
0.880000 0.000000 0
0.900000 0.000000 0
0.920000 0.000000 0
0.940000 0.000000 0
0.960000 0.000000 0
0.980000 0.000000 0
1.000000 0.000000 0
0.000000 0.020000 0
0.020000 0.020000 0
0.040000 0.020000 0
0.060000 0.020000 0
0.080000 0.020000 0
0.100000 0.020000 0
0.120000 0.020000 0
0.140000 0.020000 0
0.160000 0.020000 0
0.180000 0.020000 0
0.200000 0.020000 0
0.220000 0.020000 0
0.240000 0.020000 0
0.260000 0.020000 0
0.280000 0.020000 0
0.300000 0.020000 0
0.320000 0.020000 0
0.340000 0.020000 0
0.360000 0.020000 0
0.380000 0.020000 0
0.400000 0.020000 0
0.420000 0.020000 0
0.440000 0.020000 0
0.460000 0.020000 0
0.480000 0.020000 0
0.500000 0.020000 0
0.520000 0.020000 0
0.540000 0.020000 0
0.560000 0.020000 0
0.580000 0.020000 0
0.600000 0.020000 0
0.620000 0.020000 0
0.640000 0.020000 0
0.660000 0.020000 0
0.680000 0.020000 0
0.700000 0.020000 0
0.720000 0.020000 0
0.740000 0.020000 0
0.760000 0.020000 0
0.780000 0.020000 0
0.800000 0.020000 0
0.820000 0.020000 0
0.840000 0.020000 0
0.860000 0.020000 0
0.880000 0.020000 0
0.900000 0.020000 0
0.920000 0.020000 0
0.940000 0.020000 0
0.960000 0.020000 0
0.980000 0.020000 0
1.000000 0.020000 0
0.000000 0.040000 0
0.020000 0.040000 0
0.040000 0.040000 0
0.060000 0.040000 0
0.080000 0.040000 0
0.100000 0.040000 0
0.120000 0.040000 0
0.140000 0.040000 0
0.160000 0.040000 0
0.180000 0.040000 0
0.200000 0.040000 0
0.220000 0.040000 0
0.240000 0.040000 0
0.260000 0.040000 0
0.280000 0.040000 0
0.300000 0.040000 0
0.320000 0.040000 0
0.340000 0.040000 0
0.360000 0.040000 0
0.380000 0.040000 0
0.400000 0.040000 0
0.420000 0.040000 0
0.440000 0.040000 0
0.460000 0.040000 0
0.480000 0.040000 0
0.500000 0.040000 0
0.520000 0.040000 0
0.540000 0.040000 0
0.560000 0.040000 0
0.580000 0.040000 0
0.600000 0.040000 0
0.620000 0.040000 0
0.640000 0.040000 0
0.660000 0.040000 0
0.680000 0.040000 0
0.700000 0.040000 0
0.720000 0.040000 0
0.740000 0.040000 0
0.760000 0.040000 0
0.780000 0.040000 0
0.800000 0.040000 0
0.820000 0.040000 0
0.840000 0.040000 0
0.860000 0.040000 0
0.880000 0.040000 0
0.900000 0.040000 0
0.920000 0.040000 0
0.940000 0.040000 0
0.960000 0.040000 0
0.980000 0.040000 0
1.000000 0.040000 0
0.000000 0.060000 0
0.020000 0.060000 0
0.040000 0.060000 0
0.060000 0.060000 0
0.080000 0.060000 0
0.100000 0.060000 0
0.120000 0.060000 0
0.140000 0.060000 0
0.160000 0.060000 0
0.180000 0.060000 0
0.200000 0.060000 0
0.220000 0.060000 0
0.240000 0.060000 0
0.260000 0.060000 0
0.280000 0.060000 0
0.300000 0.060000 0
0.320000 0.060000 0
0.340000 0.060000 0
0.360000 0.060000 0
0.380000 0.060000 0
0.400000 0.060000 0
0.420000 0.060000 0
0.440000 0.060000 0
0.460000 0.060000 0
0.480000 0.060000 0
0.500000 0.060000 0
0.520000 0.060000 0
0.540000 0.060000 0
0.560000 0.060000 0
0.580000 0.060000 0
0.600000 0.060000 0
0.620000 0.060000 0
0.640000 0.060000 0
0.660000 0.060000 0
0.680000 0.060000 0
0.700000 0.060000 0
0.720000 0.060000 0
0.740000 0.060000 0
0.760000 0.060000 0
0.780000 0.060000 0
0.800000 0.060000 0
0.820000 0.060000 0
0.840000 0.060000 0
0.860000 0.060000 0
0.880000 0.060000 0
0.900000 0.060000 0
0.920000 0.060000 0
0.940000 0.060000 0
0.960000 0.060000 0
0.980000 0.060000 0
1.000000 0.060000 0
0.000000 0.080000 0
0.020000 0.080000 0
0.040000 0.080000 0
0.060000 0.080000 0
0.080000 0.080000 0
0.100000 0.080000 0
0.120000 0.080000 0
0.140000 0.080000 0
0.160000 0.080000 0
0.180000 0.080000 0
0.200000 0.080000 0
0.220000 0.080000 0
0.240000 0.080000 0
0.260000 0.080000 0
0.280000 0.080000 0
0.300000 0.080000 0
0.320000 0.080000 0
0.340000 0.080000 0
0.360000 0.080000 0
0.380000 0.080000 0
0.400000 0.080000 0
0.420000 0.080000 0
0.440000 0.080000 0
0.460000 0.080000 0
0.480000 0.080000 0
0.500000 0.080000 0
0.520000 0.080000 0
0.540000 0.080000 0
0.560000 0.080000 0
0.580000 0.080000 0
0.600000 0.080000 0
0.620000 0.080000 0
0.640000 0.080000 0
0.660000 0.080000 0
0.680000 0.080000 0
0.700000 0.080000 0
0.720000 0.080000 0
0.740000 0.080000 0
0.760000 0.080000 0
0.780000 0.080000 0
0.800000 0.080000 0
0.820000 0.080000 0
0.840000 0.080000 0
0.860000 0.080000 0
0.880000 0.080000 0
0.900000 0.080000 0
0.920000 0.080000 0
0.940000 0.080000 0
0.960000 0.080000 0
0.980000 0.080000 0
1.000000 0.080000 0
0.000000 0.100000 0
0.020000 0.100000 0
0.040000 0.100000 0
0.060000 0.100000 0
0.080000 0.100000 0
0.100000 0.100000 0
0.120000 0.100000 0
0.140000 0.100000 0
0.160000 0.100000 0
0.180000 0.100000 0
0.200000 0.100000 0
0.220000 0.100000 0
0.240000 0.100000 0
0.260000 0.100000 0
0.280000 0.100000 0
0.300000 0.100000 0
0.320000 0.100000 0
0.340000 0.100000 0
0.360000 0.100000 0
0.380000 0.100000 0
0.400000 0.100000 0
0.420000 0.100000 0
0.440000 0.100000 0
0.460000 0.100000 0
0.480000 0.100000 0
0.500000 0.100000 0
0.520000 0.100000 0
0.540000 0.100000 0
0.560000 0.100000 0
0.580000 0.100000 0
0.600000 0.100000 0
0.620000 0.100000 0
0.640000 0.100000 0
0.660000 0.100000 0
0.680000 0.100000 0
0.700000 0.100000 0
0.720000 0.100000 0
0.740000 0.100000 0
0.760000 0.100000 0
0.780000 0.100000 0
0.800000 0.100000 0
0.820000 0.100000 0
0.840000 0.100000 0
0.860000 0.100000 0
0.880000 0.100000 0
0.900000 0.100000 0
0.920000 0.100000 0
0.940000 0.100000 0
0.960000 0.100000 0
0.980000 0.100000 0
1.000000 0.100000 0
0.000000 0.120000 0
0.020000 0.120000 0
0.040000 0.120000 0
0.060000 0.120000 0
0.080000 0.120000 0
0.100000 0.120000 0
0.120000 0.120000 0
0.140000 0.120000 0
0.160000 0.120000 0
0.180000 0.120000 0
0.200000 0.120000 0
0.220000 0.120000 0
0.240000 0.120000 0
0.260000 0.120000 0
0.280000 0.120000 0
0.300000 0.120000 0
0.320000 0.120000 0
0.340000 0.120000 0
0.360000 0.120000 0
0.380000 0.120000 0
0.400000 0.120000 0
0.420000 0.120000 0
0.440000 0.120000 0
0.460000 0.120000 0
0.480000 0.120000 0
0.500000 0.120000 0
0.520000 0.120000 0
0.540000 0.120000 0
0.560000 0.120000 0
0.580000 0.120000 0
0.600000 0.120000 0
0.620000 0.120000 0
0.640000 0.120000 0
0.660000 0.120000 0
0.680000 0.120000 0
0.700000 0.120000 0
0.720000 0.120000 0
0.740000 0.120000 0
0.760000 0.120000 0
0.780000 0.120000 0
0.800000 0.120000 0
0.820000 0.120000 0
0.840000 0.120000 0
0.860000 0.120000 0
0.880000 0.120000 0
0.900000 0.120000 0
0.920000 0.120000 0
0.940000 0.120000 0
0.960000 0.120000 0
0.980000 0.120000 0
1.000000 0.120000 0
0.000000 0.140000 0
0.020000 0.140000 0
0.040000 0.140000 0
0.060000 0.140000 0
0.080000 0.140000 0
0.100000 0.140000 0
0.120000 0.140000 0
0.140000 0.140000 0
0.160000 0.140000 0
0.180000 0.140000 0
0.200000 0.140000 0
0.220000 0.140000 0
0.240000 0.140000 0
0.260000 0.140000 0
0.280000 0.140000 0
0.300000 0.140000 0
0.320000 0.140000 0
0.340000 0.140000 0
0.360000 0.140000 0
0.380000 0.140000 0
0.400000 0.140000 0
0.420000 0.140000 0
0.440000 0.140000 0
0.460000 0.140000 0
0.480000 0.140000 0
0.500000 0.140000 0
0.520000 0.140000 0
0.540000 0.140000 0
0.560000 0.140000 0
0.580000 0.140000 0
0.600000 0.140000 0
0.620000 0.140000 0
0.640000 0.140000 0
0.660000 0.140000 0
0.680000 0.140000 0
0.700000 0.140000 0
0.720000 0.140000 0
0.740000 0.140000 0
0.760000 0.140000 0
0.780000 0.140000 0
0.800000 0.140000 0
0.820000 0.140000 0
0.840000 0.140000 0
0.860000 0.140000 0
0.880000 0.140000 0
0.900000 0.140000 0
0.920000 0.140000 0
0.940000 0.140000 0
0.960000 0.140000 0
0.980000 0.140000 0
1.000000 0.140000 0
0.000000 0.160000 0
0.020000 0.160000 0
0.040000 0.160000 0
0.060000 0.160000 0
0.080000 0.160000 0
0.100000 0.160000 0
0.120000 0.160000 0
0.140000 0.160000 0
0.160000 0.160000 0
0.180000 0.160000 0
0.200000 0.160000 0
0.220000 0.160000 0
0.240000 0.160000 0
0.260000 0.160000 0
0.280000 0.160000 0
0.300000 0.160000 0
0.320000 0.160000 0
0.340000 0.160000 0
0.360000 0.160000 0
0.380000 0.160000 0
0.400000 0.160000 0
0.420000 0.160000 0
0.440000 0.160000 0
0.460000 0.160000 0
0.480000 0.160000 0
0.500000 0.160000 0
0.520000 0.160000 0
0.540000 0.160000 0
0.560000 0.160000 0
0.580000 0.160000 0
0.600000 0.160000 0
0.620000 0.160000 0
0.640000 0.160000 0
0.660000 0.160000 0
0.680000 0.160000 0
0.700000 0.160000 0
0.720000 0.160000 0
0.740000 0.160000 0
0.760000 0.160000 0
0.780000 0.160000 0
0.800000 0.160000 0
0.820000 0.160000 0
0.840000 0.160000 0
0.860000 0.160000 0
0.880000 0.160000 0
0.900000 0.160000 0
0.920000 0.160000 0
0.940000 0.160000 0
0.960000 0.160000 0
0.980000 0.160000 0
1.000000 0.160000 0
0.000000 0.180000 0
0.020000 0.180000 0
0.040000 0.180000 0
0.060000 0.180000 0
0.080000 0.180000 0
0.100000 0.180000 0
0.120000 0.180000 0
0.140000 0.180000 0
0.160000 0.180000 0
0.180000 0.180000 0
0.200000 0.180000 0
0.220000 0.180000 0
0.240000 0.180000 0
0.260000 0.180000 0
0.280000 0.180000 0
0.300000 0.180000 0
0.320000 0.180000 0
0.340000 0.180000 0
0.360000 0.180000 0
0.380000 0.180000 0
0.400000 0.180000 0
0.420000 0.180000 0
0.440000 0.180000 0
0.460000 0.180000 0
0.480000 0.180000 0
0.500000 0.180000 0
0.520000 0.180000 0
0.540000 0.180000 0
0.560000 0.180000 0
0.580000 0.180000 0
0.600000 0.180000 0
0.620000 0.180000 0
[...]
POINT_DATA 2601 

VECTORS velocity float
0.000000 0.000000 0
-0.000000 0.000000 0
-0.000001 0.000000 0
-0.000001 0.000000 0
-0.000000 0.000000 0
0.000000 0.000000 0
0.000000 0.000000 0
0.000000 0.000000 0
0.000000 0.000000 0
-0.000000 0.000000 0
-0.000000 0.000000 0
-0.000000 0.000000 0
-0.000000 0.000000 0
-0.000000 0.000000 0
0.000000 0.000000 0
0.000000 0.000000 0
0.000000 0.000000 0
0.000000 0.000000 0
-0.000000 0.000000 0
-0.000000 0.000000 0
-0.000000 0.000000 0
-0.000000 0.000000 0
-0.000000 0.000000 0
-0.000000 0.000000 0
-0.000000 0.000000 0
-0.000000 0.000000 0
-0.000000 0.000000 0
-0.000000 0.000000 0
-0.000000 0.000000 0
-0.000000 0.000000 0
-0.000000 0.000000 0
-0.000000 0.000000 0
-0.000000 0.000000 0
-0.000000 0.000000 0
-0.000000 0.000000 0
-0.000000 0.000000 0
-0.000000 0.000000 0
-0.000000 0.000000 0
-0.000000 0.000000 0
-0.000000 0.000000 0
-0.000000 0.000000 0
-0.000000 0.000000 0
0.000000 0.000000 0
0.000000 0.000000 0
0.000000 0.000000 0
0.000000 0.000000 0
0.000000 0.000000 0
0.000000 0.000000 0
0.000000 0.000000 0
-0.000000 0.000000 0
0.000000 0.000000 0
0.000000 -0.000000 0
0.000060 -0.000060 0
0.000080 -0.000023 0
-0.000016 0.000055 0
-0.000256 0.000143 0
-0.000644 0.000227 0
-0.001168 0.000301 0
-0.001809 0.000362 0
-0.002548 0.000410 0
-0.003364 0.000447 0
-0.004237 0.000474 0
-0.005150 0.000491 0
-0.006087 0.000500 0
-0.007033 0.000502 0
-0.007974 0.000496 0
-0.008897 0.000484 0
-0.009790 0.000465 0
-0.010640 0.000440 0
-0.011434 0.000408 0
-0.012160 0.000370 0
-0.012806 0.000325 0
-0.013360 0.000273 0
-0.013809 0.000215 0
-0.014144 0.000151 0
-0.014353 0.000082 0
-0.014430 0.000009 0
-0.014367 -0.000068 0
-0.014161 -0.000146 0
-0.013811 -0.000223 0
-0.013320 -0.000299 0
-0.012693 -0.000371 0
-0.011941 -0.000437 0
-0.011076 -0.000494 0
-0.010116 -0.000541 0
-0.009080 -0.000576 0
-0.007993 -0.000598 0
-0.006879 -0.000605 0
-0.005764 -0.000596 0
-0.004678 -0.000572 0
-0.003646 -0.000533 0
-0.002694 -0.000480 0
-0.001847 -0.000414 0
-0.001125 -0.000339 0
-0.000542 -0.000255 0
-0.000110 -0.000167 0
0.000169 -0.000080 0
0.000301 0.000001 0
0.000304 0.000066 0
0.000211 0.000099 0
0.000082 0.000082 0
0.000000 0.000000 0
0.000000 -0.000001 0
0.000023 -0.000081 0
-0.000076 0.000074 0
-0.000386 0.000336 0
-0.000942 0.000629 0
-0.001748 0.000913 0
-0.002787 0.001166 0
-0.004031 0.001380 0
-0.005446 0.001554 0
-0.006998 0.001689 0
-0.008655 0.001786 0
-0.010383 0.001850 0
-0.012154 0.001883 0
-0.013940 0.001887 0
-0.015714 0.001865 0
-0.017452 0.001816 0
-0.019129 0.001742 0
-0.020721 0.001644 0
-0.022206 0.001520 0
-0.023559 0.001372 0
-0.024759 0.001200 0
-0.025782 0.001003 0
-0.026607 0.000784 0
-0.027216 0.000544 0
-0.027590 0.000286 0
-0.027716 0.000013 0
-0.027584 -0.000269 0
-0.027188 -0.000556 0
-0.026527 -0.000841 0
-0.025607 -0.001118 0
-0.024439 -0.001379 0
-0.023041 -0.001617 0
-0.021439 -0.001825 0
-0.019662 -0.001996 0
-0.017748 -0.002123 0
-0.015737 -0.002202 0
-0.013676 -0.002229 0
-0.011610 -0.002201 0
-0.009591 -0.002119 0
-0.007665 -0.001983 0
-0.005878 -0.001798 0
-0.004272 -0.001570 0
-0.002883 -0.001305 0
-0.001737 -0.001015 0
-0.000853 -0.000711 0
-0.000235 -0.000411 0
0.000128 -0.000134 0
0.000265 0.000090 0
0.000229 0.000222 0
0.000102 0.000211 0
0.000000 0.000000 0
0.000000 -0.000001 0
-0.000057 0.000016 0
-0.000349 0.000386 0
-0.000945 0.000922 0
-0.001872 0.001507 0
-0.003127 0.002073 0
-0.004685 0.002583 0
-0.006513 0.003020 0
-0.008567 0.003377 0
-0.010803 0.003656 0
-0.013178 0.003858 0
-0.015648 0.003990 0
-0.018174 0.004057 0
-0.020716 0.004062 0
-0.023237 0.004008 0
-0.025702 0.003899 0
-0.028077 0.003735 0
-0.030328 0.003517 0
-0.032422 0.003246 0
-0.034325 0.002923 0
-0.036007 0.002547 0
-0.037436 0.002122 0
-0.038584 0.001649 0
-0.039425 0.001134 0
-0.039936 0.000583 0
-0.040098 0.000003 0
-0.039899 -0.000596 0
-0.039331 -0.001203 0
-0.038396 -0.001805 0
-0.037101 -0.002387 0
-0.035464 -0.002936 0
-0.033508 -0.003437 0
-0.031269 -0.003873 0
-0.028787 -0.004232 0
-0.026113 -0.004501 0
-0.023303 -0.004670 0
-0.020416 -0.004732 0
-0.017518 -0.004681 0
-0.014675 -0.004518 0
-0.011950 -0.004246 0
-0.009406 -0.003873 0
-0.007098 -0.003410 0
-0.005075 -0.002873 0
-0.003373 -0.002284 0
-0.002016 -0.001669 0
-0.001012 -0.001061 0
-0.000348 -0.000499 0
0.000010 -0.000036 0
0.000121 0.000263 0
0.000076 0.000311 0
0.000000 0.000000 0
0.000000 -0.000000 0
-0.000153 0.000268 0
-0.000674 0.000964 0
-0.001597 0.001860 0
-0.002929 0.002811 0
-0.004654 0.003725 0
-0.006740 0.004551 0
-0.009142 0.005261 0
-0.011812 0.005844 0
-0.014696 0.006300 0
-0.017743 0.006632 0
-0.020900 0.006846 0
-0.024120 0.006950 0
-0.027353 0.006950 0
-0.030554 0.006851 0
-0.033679 0.006656 0
-0.036684 0.006368 0
-0.039528 0.005988 0
-0.042167 0.005517 0
-0.044563 0.004958 0
-0.046675 0.004311 0
-0.048466 0.003581 0
-0.049902 0.002773 0
-0.050949 0.001895 0
-0.051581 0.000959 0
-0.051777 -0.000024 0
-0.051521 -0.001036 0
-0.050806 -0.002058 0
-0.049633 -0.003071 0
-0.048013 -0.004050 0
-0.045966 -0.004972 0
-0.043524 -0.005812 0
-0.040728 -0.006546 0
-0.037627 -0.007151 0
-0.034283 -0.007608 0
-0.030763 -0.007899 0
-0.027140 -0.008013 0
-0.023492 -0.007942 0
-0.019899 -0.007687 0
-0.016438 -0.007252 0
-0.013185 -0.006650 0
-0.010208 -0.005901 0
-0.007566 -0.005030 0
-0.005305 -0.004073 0
-0.003454 -0.003073 0
-0.002026 -0.002079 0
-0.001011 -0.001156 0
-0.000376 -0.000379 0
-0.000060 0.000156 0
0.000025 0.000333 0
0.000000 0.000000 0
0.000000 0.000000 0
-0.000253 0.000691 0
-0.001016 0.001831 0
-0.002285 0.003177 0
-0.004041 0.004563 0
-0.006250 0.005882 0
-0.008866 0.007070 0
-0.011837 0.008091 0
-0.015106 0.008931 0
-0.018612 0.009587 0
-0.022296 0.010063 0
-0.026100 0.010368 0
-0.029966 0.010509 0
-0.033841 0.010496 0
-0.037670 0.010334 0
-0.041402 0.010029 0
-0.044986 0.009583 0
-0.048372 0.009000 0
-0.051512 0.008282 0
-0.054359 0.007431 0
-0.056867 0.006451 0
-0.058991 0.005348 0
-0.060693 0.004132 0
-0.061935 0.002814 0
-0.062687 0.001411 0
-0.062924 -0.000057 0
-0.062629 -0.001567 0
-0.061794 -0.003091 0
-0.060421 -0.004598 0
-0.058522 -0.006054 0
-0.056121 -0.007425 0
-0.053252 -0.008675 0
-0.049962 -0.009770 0
-0.046310 -0.010676 0
-0.042363 -0.011365 0
-0.038199 -0.011813 0
-0.033900 -0.012002 0
-0.029557 -0.011923 0
-0.025260 -0.011572 0
-0.021100 -0.010960 0
-0.017164 -0.010102 0
-0.013531 -0.009029 0
-0.010270 -0.007777 0
-0.007438 -0.006397 0
-0.005071 -0.004948 0
-0.003189 -0.003504 0
-0.001786 -0.002149 0
-0.000834 -0.000987 0
-0.000278 -0.000138 0
-0.000036 0.000251 0
0.000000 0.000000 0
0.000000 0.000000 0
-0.000351 0.001285 0
-0.001358 0.002997 0
-0.002979 0.004884 0
-0.005164 0.006774 0
-0.007860 0.008549 0
-0.011007 0.010138 0
-0.014539 0.011501 0
-0.018393 0.012619 0
-0.022500 0.013491 0
-0.026795 0.014120 0
-0.031213 0.014517 0
-0.035691 0.014691 0
-0.040169 0.014654 0
-0.044586 0.014412 0
-0.048885 0.013972 0
-0.053009 0.013338 0
-0.056903 0.012515 0
-0.060512 0.011504 0
-0.063783 0.010312 0
-0.066665 0.008943 0
-0.069108 0.007407 0
-0.071069 0.005717 0
-0.072507 0.003890 0
-0.073388 0.001948 0
-0.073683 -0.000081 0
-0.073375 -0.002165 0
-0.072453 -0.004266 0
-0.070919 -0.006343 0
-0.068786 -0.008351 0
-0.066079 -0.010243 0
-0.062835 -0.011970 0
-0.059106 -0.013487 0
-0.054955 -0.014750 0
-0.050455 -0.015719 0
-0.045692 -0.016362 0
-0.040758 -0.016655 0
-0.035753 -0.016583 0
-0.030778 -0.016144 0
-0.025934 -0.015348 0
-0.021322 -0.014219 0
-0.017030 -0.012794 0
-0.013141 -0.011123 0
-0.009719 -0.009273 0
-0.006812 -0.007321 0
-0.004447 -0.005364 0
-0.002628 -0.003510 0
-0.001332 -0.001887 0
-0.000514 -0.000642 0
-0.000101 0.000054 0
0.000000 0.000000 0
0.000000 0.000000 0
-0.000445 0.002050 0
-0.001692 0.004459 0
-0.003661 0.006982 0
-0.006273 0.009444 0
-0.009452 0.011724 0
-0.013122 0.013749 0
-0.017207 0.015478 0
-0.021632 0.016892 0
-0.026322 0.017989 0
-0.031205 0.018776 0
-0.036211 0.019264 0
-0.041272 0.019465 0
-0.046323 0.019390 0
-0.051298 0.019050 0
-0.056136 0.018452 0
-0.060773 0.017602 0
-0.065151 0.016503 0
-0.069208 0.015162 0
-0.072888 0.013583 0
-0.076135 0.011776 0
-0.078895 0.009753 0
-0.081120 0.007531 0
-0.082766 0.005132 0
-0.083794 0.002587 0
-0.084173 -0.000070 0
-0.083884 -0.002798 0
-0.082912 -0.005547 0
-0.081260 -0.008265 0
-0.078938 -0.010895 0
-0.075972 -0.013376 0
-0.072402 -0.015648 0
-0.068279 -0.017650 0
-0.063671 -0.019327 0
-0.058657 -0.020628 0
-0.053328 -0.021510 0
-0.047784 -0.021941 0
-0.042133 -0.021903 0
-0.036488 -0.021391 0
-0.030962 -0.020416 0
-0.025665 -0.019006 0
-0.020701 -0.017209 0
-0.016161 -0.015088 0
-0.012125 -0.012725 0
-0.008650 -0.010220 0
-0.005775 -0.007688 0
-0.003513 -0.005264 0
-0.001853 -0.003101 0
-0.000757 -0.001369 0
-0.000166 -0.000263 0
0.000000 0.000000 0
0.000000 0.000000 0
-0.000535 0.002978 0
-0.002014 0.006211 0
-0.004321 0.009464 0
-0.007350 0.012565 0
-0.011003 0.015399 0
-0.015186 0.017894 0
-0.019811 0.020011 0
-0.024791 0.021734 0
-0.030046 0.023064 0
-0.035497 0.024009 0
-0.041069 0.024584 0
-0.046690 0.024803 0
-0.052290 0.024680 0
-0.057800 0.024225 0
-0.063154 0.023447 0
-0.068287 0.022353 0
-0.073133 0.020950 0
-0.077629 0.019242 0
-0.081713 0.017238 0
-0.085326 0.014950 0
-0.088411 0.012392 0
-0.090914 0.009587 0
-0.092788 0.006563 0
-0.093991 0.003355 0
-0.094488 0.000009 0
-0.094256 -0.003426 0
-0.093279 -0.006890 0
-0.091554 -0.010318 0
-0.089091 -0.013639 0
-0.085914 -0.016779 0
-0.082062 -0.019664 0
-0.077588 -0.022218 0
-0.072560 -0.024372 0
-0.067062 -0.026062 0
-0.061190 -0.027235 0
-0.055050 -0.027849 0
-0.048760 -0.027878 0
-0.042442 -0.027315 0
-0.036221 -0.026172 0
-0.030221 -0.024481 0
-0.024557 -0.022298 0
-0.019338 -0.019699 0
-0.014655 -0.016784 0
-0.010580 -0.013671 0
-0.007165 -0.010501 0
-0.004435 -0.007432 0
-0.002390 -0.004643 0
-0.001005 -0.002328 0
-0.000231 -0.000703 0
0.000000 0.000000 0
0.000000 0.000000 0
-0.000621 0.004064 0
-0.002322 0.008244 0
-0.004954 0.012318 0
-0.008387 0.016126 0
-0.012499 0.019561 0
-0.017180 0.022557 0
-0.022327 0.025083 0
-0.027846 0.027127 0
-0.033647 0.028695 0
-0.039646 0.029799 0
-0.045764 0.030457 0
-0.051924 0.030685 0
-0.058054 0.030501 0
-0.064081 0.029915 0
-0.069937 0.028939 0
-0.075552 0.027580 0
-0.080858 0.025845 0
-0.085790 0.023742 0
-0.090281 0.021280 0
-0.094269 0.018473 0
-0.097693 0.015341 0
-0.100497 0.011908 0
-0.102629 0.008209 0
-0.104042 0.004288 0
-0.104698 0.000195 0
-0.104568 -0.004007 0
-0.103634 -0.008249 0
-0.101887 -0.012453 0
-0.099334 -0.016534 0
-0.095996 -0.020405 0
-0.091909 -0.023974 0
-0.087125 -0.027152 0
-0.081713 -0.029853 0
-0.075758 -0.031999 0
-0.069359 -0.033522 0
-0.062632 -0.034371 0
-0.055700 -0.034511 0
-0.048697 -0.033930 0
-0.041761 -0.032637 0
-0.035028 -0.030670 0
-0.028632 -0.028092 0
-0.022695 -0.024991 0
-0.017326 -0.021483 0
-0.012613 -0.017710 0
-0.008622 -0.013833 0
-0.005396 -0.010039 0
-0.002945 -0.006530 0
-0.001258 -0.003528 0
-0.000296 -0.001268 0
0.000000 0.000000 0
0.000000 -0.000000 0
-0.000702 0.005299 0
-0.002613 0.010544 0
-0.005557 0.015529 0
-0.009376 0.020110 0
-0.013929 0.024192 0
-0.019088 0.027722 0
-0.024739 0.030677 0
-0.030776 0.033053 0
-0.037103 0.034864 0
-0.043630 0.036126 0
-0.050273 0.036862 0
-0.056954 0.037093 0
-0.063596 0.036837 0
-0.070125 0.036108 0
-0.076470 0.034917 0
-0.082560 0.033275 0
-0.088324 0.031188 0
-0.093693 0.028665 0
-0.098600 0.025718 0
-0.102978 0.022362 0
-0.106764 0.018620 0
-0.109897 0.014522 0
-0.112321 0.010107 0
-0.113986 0.005425 0
-0.114848 0.000535 0
-0.114872 -0.004491 0
-0.114034 -0.009572 0
-0.112321 -0.014617 0
-0.109734 -0.019530 0
-0.106288 -0.024204 0
-0.102015 -0.028535 0
-0.096965 -0.032414 0
-0.091204 -0.035739 0
-0.084819 -0.038416 0
-0.077911 -0.040361 0
-0.070601 -0.041508 0
-0.063022 -0.041813 0
-0.055317 -0.041254 0
-0.047638 -0.039841 0
-0.040138 -0.037610 0
-0.032967 -0.034631 0
-0.026267 -0.031005 0
-0.020165 -0.026866 0
-0.014770 -0.022374 0
-0.010164 -0.017718 0
-0.006407 -0.013110 0
-0.003526 -0.008780 0
-0.001520 -0.004977 0
-0.000362 -0.001962 0
0.000000 0.000000 0
0.000000 -0.000000 0
-0.000778 0.006676 0
-0.002888 0.013099 0
-0.006126 0.019081 0
-0.010312 0.024498 0
-0.015284 0.029273 0
-0.020899 0.033368 0
-0.027030 0.036771 0
-0.033562 0.039491 0
-0.040392 0.041548 0
-0.047425 0.042969 0
-0.054573 0.043781 0
-0.061756 0.044008 0
-0.068893 0.043672 0
-0.075911 0.042790 0
-0.082735 0.041373 0
-0.089294 0.039433 0
-0.095515 0.036979 0
-0.101328 0.034019 0
-0.106663 0.030566 0
-0.111450 0.026638 0
-0.115624 0.022260 0
-0.119119 0.017465 0
-0.121875 0.012298 0
-0.123838 0.006814 0
-0.124956 0.001081 0
-0.125191 -0.004821 0
-0.124509 -0.010800 0
-0.122891 -0.016753 0
-0.120331 -0.022567 0
-0.116836 -0.028124 0
-0.112432 -0.033297 0
-0.107164 -0.037963 0
-0.101095 -0.041999 0
-0.094309 -0.045292 0
-0.086911 -0.047740 0
-0.079025 -0.049261 0
-0.070791 -0.049796 0
-0.062366 -0.049314 0
-0.053914 -0.047816 0
-0.045607 -0.045341 0
-0.037614 -0.041962 0
-0.030099 -0.037793 0
-0.023211 -0.032981 0
-0.017080 -0.027711 0
-0.011813 -0.022196 0
-0.007485 -0.016677 0
-0.004142 -0.011417 0
-0.001797 -0.006691 0
-0.000432 -0.002789 0
0.000000 -0.000000 0
0.000000 -0.000000 0
-0.000849 0.008187 0
-0.003145 0.015892 0
-0.006658 0.022953 0
-0.011188 0.029268 0
-0.016555 0.034780 0
-0.022601 0.039469 0
-0.029186 0.043340 0
-0.036187 0.046415 0
-0.043495 0.048726 0
-0.051009 0.050307 0
-0.058640 0.051193 0
-0.066304 0.051413 0
-0.073919 0.050992 0
-0.081412 0.049950 0
-0.088706 0.048300 0
-0.095728 0.046054 0
-0.102407 0.043222 0
-0.108670 0.039813 0
-0.114446 0.035840 0
-0.119663 0.031323 0
-0.124251 0.026289 0
-0.128144 0.020774 0
-0.131275 0.014826 0
-0.133584 0.008506 0
-0.135016 0.001889 0
-0.135521 -0.004938 0
-0.135060 -0.011871 0
-0.133603 -0.018796 0
-0.131136 -0.025585 0
-0.127658 -0.032103 0
-0.123185 -0.038207 0
-0.117754 -0.043751 0
-0.111423 -0.048594 0
-0.104274 -0.052599 0
-0.096410 -0.055645 0
-0.087958 -0.057628 0
-0.079067 -0.058472 0
-0.069903 -0.058132 0
-0.060648 -0.056600 0
-0.051492 -0.053910 0
-0.042626 -0.050139 0
-0.034238 -0.045408 0
-0.026504 -0.039884 0
-0.019580 -0.033772 0
-0.013595 -0.027314 0
-0.008649 -0.020781 0
-0.004805 -0.014468 0
-0.002093 -0.008688 0
-0.000505 -0.003758 0
0.000000 -0.000000 0
0.000000 -0.000000 0
-0.000915 0.009821 0
-0.003382 0.018908 0
-0.007151 0.027125 0
-0.012001 0.034395 0
-0.017735 0.040686 0
-0.024181 0.045998 0
-0.031191 0.050357 0
-0.038632 0.053799 0
-0.046389 0.056370 0
-0.054359 0.058115 0
-0.062447 0.059076 0
-0.070569 0.059287 0
-0.078643 0.058780 0
-0.086594 0.057576 0
-0.094346 0.055690 0
-0.101826 0.053135 0
-0.108962 0.049921 0
-0.115680 0.046057 0
-0.121909 0.041558 0
-0.127575 0.036443 0
-0.132607 0.030741 0
-0.136932 0.024489 0
-0.140481 0.017738 0
-0.143187 0.010554 0
-0.144988 0.003017 0
-0.145827 -0.004777 0
-0.145655 -0.012717 0
-0.144431 -0.020676 0
-0.142131 -0.028513 0
-0.138741 -0.036075 0
-0.134268 -0.043201 0
-0.128739 -0.049724 0
-0.122203 -0.055479 0
-0.114736 -0.060305 0
-0.106439 -0.064055 0
-0.097441 -0.066603 0
-0.087896 -0.067850 0
-0.077982 -0.067732 0
-0.067897 -0.066228 0
-0.057849 -0.063364 0
-0.048057 -0.059216 0
-0.038736 -0.053914 0
-0.030090 -0.047639 0
-0.022305 -0.040620 0
-0.015540 -0.033127 0
-0.009919 -0.025467 0
-0.005530 -0.017972 0
-0.002417 -0.010991 0
-0.000586 -0.004882 0
0.000000 -0.000000 0
0.000000 0.000000 0
-0.000975 0.011569 0
-0.003598 0.022129 0
-0.007601 0.031572 0
-0.012743 0.039851 0
-0.018814 0.046960 0
-0.025630 0.052925 0
-0.033031 0.057790 0
-0.040879 0.061613 0
-0.049054 0.064452 0
-0.057447 0.066365 0
-0.065965 0.067403 0
-0.074519 0.067609 0
-0.083029 0.067017 0
-0.091419 0.065652 0
-0.099614 0.063532 0
-0.107542 0.060670 0
-0.115130 0.057076 0
-0.122306 0.052760 0
-0.128997 0.047735 0
-0.135129 0.042021 0
-0.140628 0.035645 0
-0.145418 0.028648 0
-0.149426 0.021081 0
-0.152579 0.013013 0
-0.154807 0.004528 0
-0.156044 -0.004272 0
-0.156230 -0.013267 0
-0.155315 -0.022320 0
-0.153260 -0.031276 0
-0.150038 -0.039966 0
-0.145644 -0.048209 0
-0.140091 -0.055817 0
-0.133418 -0.062597 0
-0.125691 -0.068363 0
-0.117007 -0.072940 0
-0.107494 -0.076171 0
-0.097310 -0.077931 0
-0.086643 -0.078131 0
-0.075705 -0.076733 0
-0.064729 -0.073749 0
-0.053960 -0.069252 0
-0.043642 -0.063375 0
-0.034014 -0.056315 0
-0.025295 -0.048322 0
-0.017679 -0.039700 0
-0.011319 -0.030791 0
-0.006329 -0.021971 0
-0.002775 -0.013632 0
-0.000675 -0.006175 0
0.000000 -0.000000 0
0.000000 0.000000 0
-0.001028 0.013419 0
-0.003792 0.025535 0
-0.008004 0.036270 0
-0.013409 0.045608 0
-0.019784 0.053572 0
-0.026933 0.060215 0
-0.034690 0.065606 0
-0.042909 0.069822 0
-0.051466 0.072939 0
-0.060249 0.075026 0
-0.069162 0.076147 0
-0.078119 0.076352 0
-0.087037 0.075680 0
-0.095842 0.074160 0
-0.104460 0.071813 0
-0.112820 0.068651 0
-0.120852 0.064685 0
-0.128482 0.059924 0
-0.135639 0.054381 0
-0.142248 0.048074 0
-0.148233 0.041029 0
-0.153516 0.033287 0
-0.158019 0.024899 0
-0.161664 0.015935 0
-0.164373 0.006482 0
-0.166071 -0.003354 0
-0.166687 -0.013445 0
-0.166159 -0.023647 0
-0.164431 -0.033790 0
-0.161465 -0.043691 0
-0.157237 -0.053149 0
-0.151746 -0.061951 0
-0.145016 -0.069879 0
-0.137103 -0.076716 0
-0.128093 -0.082253 0
-0.118111 -0.086301 0
-0.107317 -0.088702 0
-0.095906 -0.089337 0
-0.084106 -0.088141 0
-0.072172 -0.085109 0
-0.060377 -0.080304 0
-0.049000 -0.073860 0
-0.038317 -0.065985 0
-0.028587 -0.056955 0
-0.020042 -0.047103 0
-0.012871 -0.036816 0
-0.007218 -0.026516 0
-0.003175 -0.016645 0
-0.000775 -0.007657 0
0.000000 -0.000000 0
0.000000 0.000000 0
-0.001075 0.015361 0
-0.003961 0.029105 0
-0.008357 0.041190 0
-0.013994 0.051631 0
-0.020636 0.060484 0
-0.028081 0.067831 0
-0.036153 0.073767 0
-0.044703 0.078389 0
-0.053601 0.081792 0
-0.062735 0.084062 0
-0.072007 0.085273 0
-0.081330 0.085484 0
-0.090623 0.084740 0
-0.099813 0.083075 0
-0.108828 0.080511 0
-0.117599 0.077062 0
-0.126057 0.072738 0
-0.134131 0.067547 0
-0.141749 0.061501 0
-0.148837 0.054614 0
-0.155319 0.046913 0
-0.161115 0.038434 0
-0.166142 0.029230 0
-0.170318 0.019367 0
-0.173557 0.008936 0
-0.175775 -0.001957 0
-0.176891 -0.013179 0
-0.176826 -0.024576 0
-0.175513 -0.035969 0
-0.172894 -0.047160 0
-0.168929 -0.057928 0
-0.163597 -0.068037 0
-0.156907 -0.077240 0
-0.148896 -0.085286 0
-0.139640 -0.091931 0
-0.129255 -0.096947 0
-0.117898 -0.100136 0
-0.105770 -0.101342 0
-0.093114 -0.100467 0
-0.080204 -0.097478 0
-0.067343 -0.092424 0
-0.054849 -0.085435 0
-0.043039 -0.076727 0
-0.032217 -0.066597 0
-0.022658 -0.055416 0
-0.014596 -0.043615 0
-0.008211 -0.031667 0
-0.003623 -0.020075 0
-0.000888 -0.009350 0
0.000000 -0.000000 0
0.000000 0.000000 0
-0.001114 0.017381 0
-0.004105 0.032817 0
-0.008657 0.046302 0
-0.014490 0.057886 0
-0.021362 0.067659 0
-0.029060 0.075733 0
-0.037405 0.082229 0
-0.046242 0.087270 0
-0.055437 0.090971 0
-0.064878 0.093432 0
-0.074466 0.094742 0
-0.084114 0.094968 0
-0.093742 0.094163 0
-0.103280 0.092365 0
-0.112658 0.089599 0
-0.121809 0.085880 0
-0.130667 0.081217 0
-0.139164 0.075616 0
-0.147228 0.069088 0
-0.154789 0.061644 0
-0.161768 0.053307 0
-0.168085 0.044110 0
-0.173655 0.034102 0
-0.178391 0.023350 0
-0.182200 0.011939 0
-0.184991 -0.000020 0
-0.186669 -0.012394 0
-0.187145 -0.025024 0
-0.186332 -0.037722 0
-0.184157 -0.050275 0
-0.180558 -0.062446 0
-0.175495 -0.073973 0
-0.168954 -0.084580 0
-0.160954 -0.093982 0
-0.151552 -0.101894 0
-0.140851 -0.108043 0
-0.129002 -0.112186 0
-0.116207 -0.114121 0
-0.102718 -0.113708 0
-0.088831 -0.110880 0
-0.074879 -0.105659 0
-0.061218 -0.098164 0
-0.048212 -0.088617 0
-0.036216 -0.077335 0
-0.025557 -0.064724 0
-0.016517 -0.051264 0
-0.009322 -0.037489 0
-0.004127 -0.023968 0
-0.001016 -0.011280 0
0.000000 -0.000000 0
0.000000 0.000000 0
-0.001145 0.019466 0
-0.004220 0.036647 0
-0.008898 0.051575 0
-0.014893 0.064336 0
-0.021953 0.075055 0
-0.029862 0.083875 0
-0.038432 0.090948 0
-0.047507 0.096421 0
-0.056952 0.100428 0
-0.066651 0.103091 0
-0.076506 0.104508 0
-0.086430 0.104760 0
-0.096347 0.103907 0
-0.106188 0.101991 0