# vtk DataFile Version 2.0
generated by CFD-lab course output (written by Tobias Neckel) 
ASCII

DATASET STRUCTURED_GRID
DIMENSIONS  51 51 1 
POINTS 2601 float

0.000000 0.000000 0
0.020000 0.000000 0
0.040000 0.000000 0
0.060000 0.000000 0
0.080000 0.000000 0
0.100000 0.000000 0
0.120000 0.000000 0
0.140000 0.000000 0
0.160000 0.000000 0
0.180000 0.000000 0
0.200000 0.000000 0
0.220000 0.000000 0
0.240000 0.000000 0
0.260000 0.000000 0
0.280000 0.000000 0
0.300000 0.000000 0
0.320000 0.000000 0
0.340000 0.000000 0
0.360000 0.000000 0
0.380000 0.000000 0
0.400000 0.000000 0
0.420000 0.000000 0
0.440000 0.000000 0
0.460000 0.000000 0
0.480000 0.000000 0
0.500000 0.000000 0
0.520000 0.000000 0
0.540000 0.000000 0
0.560000 0.000000 0
0.580000 0.000000 0
0.600000 0.000000 0
0.620000 0.000000 0
0.640000 0.000000 0
0.660000 0.000000 0
0.680000 0.000000 0
0.700000 0.000000 0
0.720000 0.000000 0
0.740000 0.000000 0
0.760000 0.000000 0
0.780000 0.000000 0
0.800000 0.000000 0
0.820000 0.000000 0
0.840000 0.000000 0
0.860000 0.000000 0
0.880000 0.000000 0
0.900000 0.000000 0
0.920000 0.000000 0
0.940000 0.000000 0
0.960000 0.000000 0
0.980000 0.000000 0
1.000000 0.000000 0
0.000000 0.020000 0
0.020000 0.020000 0
0.040000 0.020000 0
0.060000 0.020000 0
0.080000 0.020000 0
0.100000 0.020000 0
0.120000 0.020000 0
0.140000 0.020000 0
0.160000 0.020000 0
0.180000 0.020000 0
0.200000 0.020000 0
0.220000 0.020000 0
0.240000 0.020000 0
0.260000 0.020000 0
0.280000 0.020000 0
0.300000 0.020000 0
0.320000 0.020000 0
0.340000 0.020000 0
0.360000 0.020000 0
0.380000 0.020000 0
0.400000 0.020000 0
0.420000 0.020000 0
0.440000 0.020000 0
0.460000 0.020000 0
0.480000 0.020000 0
0.500000 0.020000 0
0.520000 0.020000 0
0.540000 0.020000 0
0.560000 0.020000 0
0.580000 0.020000 0
0.600000 0.020000 0
0.620000 0.020000 0
0.640000 0.020000 0
0.660000 0.020000 0
0.680000 0.020000 0
0.700000 0.020000 0
0.720000 0.020000 0
0.740000 0.020000 0
0.760000 0.020000 0
0.780000 0.020000 0
0.800000 0.020000 0
0.820000 0.020000 0
0.840000 0.020000 0
0.860000 0.020000 0
0.880000 0.020000 0
0.900000 0.020000 0
0.920000 0.020000 0
0.940000 0.020000 0
0.960000 0.020000 0
0.980000 0.020000 0
1.000000 0.020000 0
0.000000 0.040000 0
0.020000 0.040000 0
0.040000 0.040000 0
0.060000 0.040000 0
0.080000 0.040000 0
0.100000 0.040000 0
0.120000 0.040000 0
0.140000 0.040000 0
0.160000 0.040000 0
0.180000 0.040000 0
0.200000 0.040000 0
0.220000 0.040000 0
0.240000 0.040000 0
0.260000 0.040000 0
0.280000 0.040000 0
0.300000 0.040000 0
0.320000 0.040000 0
0.340000 0.040000 0
0.360000 0.040000 0
0.380000 0.040000 0
0.400000 0.040000 0
0.420000 0.040000 0
0.440000 0.040000 0
0.460000 0.040000 0
0.480000 0.040000 0
0.500000 0.040000 0
0.520000 0.040000 0
0.540000 0.040000 0
0.560000 0.040000 0
0.580000 0.040000 0
0.600000 0.040000 0
0.620000 0.040000 0
0.640000 0.040000 0
0.660000 0.040000 0
0.680000 0.040000 0
0.700000 0.040000 0
0.720000 0.040000 0
0.740000 0.040000 0
0.760000 0.040000 0
0.780000 0.040000 0
0.800000 0.040000 0
0.820000 0.040000 0
0.840000 0.040000 0
0.860000 0.040000 0
0.880000 0.040000 0
0.900000 0.040000 0
0.920000 0.040000 0
0.940000 0.040000 0
0.960000 0.040000 0
0.980000 0.040000 0
1.000000 0.040000 0
0.000000 0.060000 0
0.020000 0.060000 0
0.040000 0.060000 0
0.060000 0.060000 0
0.080000 0.060000 0
0.100000 0.060000 0
0.120000 0.060000 0
0.140000 0.060000 0
0.160000 0.060000 0
0.180000 0.060000 0
0.200000 0.060000 0
0.220000 0.060000 0
0.240000 0.060000 0
0.260000 0.060000 0
0.280000 0.060000 0
0.300000 0.060000 0
0.320000 0.060000 0
0.340000 0.060000 0
0.360000 0.060000 0
0.380000 0.060000 0
0.400000 0.060000 0
0.420000 0.060000 0
0.440000 0.060000 0
0.460000 0.060000 0
0.480000 0.060000 0
0.500000 0.060000 0
0.520000 0.060000 0
0.540000 0.060000 0
0.560000 0.060000 0
0.580000 0.060000 0
0.600000 0.060000 0
0.620000 0.060000 0
0.640000 0.060000 0
0.660000 0.060000 0
0.680000 0.060000 0
0.700000 0.060000 0
0.720000 0.060000 0
0.740000 0.060000 0
0.760000 0.060000 0
0.780000 0.060000 0
0.800000 0.060000 0
0.820000 0.060000 0
0.840000 0.060000 0
0.860000 0.060000 0
0.880000 0.060000 0
0.900000 0.060000 0
0.920000 0.060000 0
0.940000 0.060000 0
0.960000 0.060000 0
0.980000 0.060000 0
1.000000 0.060000 0
0.000000 0.080000 0
0.020000 0.080000 0
0.040000 0.080000 0
0.060000 0.080000 0
0.080000 0.080000 0
0.100000 0.080000 0
0.120000 0.080000 0
0.140000 0.080000 0
0.160000 0.080000 0
0.180000 0.080000 0
0.200000 0.080000 0
0.220000 0.080000 0
0.240000 0.080000 0
0.260000 0.080000 0
0.280000 0.080000 0
0.300000 0.080000 0
0.320000 0.080000 0
0.340000 0.080000 0
0.360000 0.080000 0
0.380000 0.080000 0
0.400000 0.080000 0
0.420000 0.080000 0
0.440000 0.080000 0
0.460000 0.080000 0
0.480000 0.080000 0
0.500000 0.080000 0
0.520000 0.080000 0
0.540000 0.080000 0
0.560000 0.080000 0
0.580000 0.080000 0
0.600000 0.080000 0
0.620000 0.080000 0
0.640000 0.080000 0
0.660000 0.080000 0
0.680000 0.080000 0
0.700000 0.080000 0
0.720000 0.080000 0
0.740000 0.080000 0
0.760000 0.080000 0
0.780000 0.080000 0
0.800000 0.080000 0
0.820000 0.080000 0
0.840000 0.080000 0
0.860000 0.080000 0
0.880000 0.080000 0
0.900000 0.080000 0
0.920000 0.080000 0
0.940000 0.080000 0
0.960000 0.080000 0
0.980000 0.080000 0
1.000000 0.080000 0
0.000000 0.100000 0
0.020000 0.100000 0
0.040000 0.100000 0
0.060000 0.100000 0
0.080000 0.100000 0
0.100000 0.100000 0
0.120000 0.100000 0
0.140000 0.100000 0
0.160000 0.100000 0
0.180000 0.100000 0
0.200000 0.100000 0
0.220000 0.100000 0
0.240000 0.100000 0
0.260000 0.100000 0
0.280000 0.100000 0
0.300000 0.100000 0
0.320000 0.100000 0
0.340000 0.100000 0
0.360000 0.100000 0
0.380000 0.100000 0
0.400000 0.100000 0
0.420000 0.100000 0
0.440000 0.100000 0
0.460000 0.100000 0
0.480000 0.100000 0
0.500000 0.100000 0
0.520000 0.100000 0
0.540000 0.100000 0
0.560000 0.100000 0
0.580000 0.100000 0
0.600000 0.100000 0
0.620000 0.100000 0
0.640000 0.100000 0
0.660000 0.100000 0
0.680000 0.100000 0
0.700000 0.100000 0
0.720000 0.100000 0
0.740000 0.100000 0
0.760000 0.100000 0
0.780000 0.100000 0
0.800000 0.100000 0
0.820000 0.100000 0
0.840000 0.100000 0
0.860000 0.100000 0
0.880000 0.100000 0
0.900000 0.100000 0
0.920000 0.100000 0
0.940000 0.100000 0
0.960000 0.100000 0
0.980000 0.100000 0
1.000000 0.100000 0
0.000000 0.120000 0
0.020000 0.120000 0
0.040000 0.120000 0
0.060000 0.120000 0
0.080000 0.120000 0
0.100000 0.120000 0
0.120000 0.120000 0
0.140000 0.120000 0
0.160000 0.120000 0
0.180000 0.120000 0
0.200000 0.120000 0
0.220000 0.120000 0
0.240000 0.120000 0
0.260000 0.120000 0
0.280000 0.120000 0
0.300000 0.120000 0
0.320000 0.120000 0
0.340000 0.120000 0
0.360000 0.120000 0
0.380000 0.120000 0
0.400000 0.120000 0
0.420000 0.120000 0
0.440000 0.120000 0
0.460000 0.120000 0
0.480000 0.120000 0
0.500000 0.120000 0
0.520000 0.120000 0
0.540000 0.120000 0
0.560000 0.120000 0
0.580000 0.120000 0
0.600000 0.120000 0
0.620000 0.120000 0
0.640000 0.120000 0
0.660000 0.120000 0
0.680000 0.120000 0
0.700000 0.120000 0
0.720000 0.120000 0
0.740000 0.120000 0
0.760000 0.120000 0
0.780000 0.120000 0
0.800000 0.120000 0
0.820000 0.120000 0
0.840000 0.120000 0
0.860000 0.120000 0
0.880000 0.120000 0
0.900000 0.120000 0
0.920000 0.120000 0
0.940000 0.120000 0
0.960000 0.120000 0
0.980000 0.120000 0
1.000000 0.120000 0
0.000000 0.140000 0
0.020000 0.140000 0
0.040000 0.140000 0
0.060000 0.140000 0
0.080000 0.140000 0
0.100000 0.140000 0
0.120000 0.140000 0
0.140000 0.140000 0
0.160000 0.140000 0
0.180000 0.140000 0
0.200000 0.140000 0
0.220000 0.140000 0
0.240000 0.140000 0
0.260000 0.140000 0
0.280000 0.140000 0
0.300000 0.140000 0
0.320000 0.140000 0
0.340000 0.140000 0
0.360000 0.140000 0
0.380000 0.140000 0
0.400000 0.140000 0
0.420000 0.140000 0
0.440000 0.140000 0
0.460000 0.140000 0
0.480000 0.140000 0
0.500000 0.140000 0
0.520000 0.140000 0
0.540000 0.140000 0
0.560000 0.140000 0
0.580000 0.140000 0
0.600000 0.140000 0
0.620000 0.140000 0
0.640000 0.140000 0
0.660000 0.140000 0
0.680000 0.140000 0
0.700000 0.140000 0
0.720000 0.140000 0
0.740000 0.140000 0
0.760000 0.140000 0
0.780000 0.140000 0
0.800000 0.140000 0
0.820000 0.140000 0
0.840000 0.140000 0
0.860000 0.140000 0
0.880000 0.140000 0
0.900000 0.140000 0
0.920000 0.140000 0
0.940000 0.140000 0
0.960000 0.140000 0
0.980000 0.140000 0
1.000000 0.140000 0
0.000000 0.160000 0
0.020000 0.160000 0
0.040000 0.160000 0
0.060000 0.160000 0
0.080000 0.160000 0
0.100000 0.160000 0
0.120000 0.160000 0
0.140000 0.160000 0
0.160000 0.160000 0
0.180000 0.160000 0
0.200000 0.160000 0
0.220000 0.160000 0
0.240000 0.160000 0
0.260000 0.160000 0
0.280000 0.160000 0
0.300000 0.160000 0
0.320000 0.160000 0
0.340000 0.160000 0
0.360000 0.160000 0
0.380000 0.160000 0
0.400000 0.160000 0
0.420000 0.160000 0
0.440000 0.160000 0
0.460000 0.160000 0
0.480000 0.160000 0
0.500000 0.160000 0
0.520000 0.160000 0
0.540000 0.160000 0
0.560000 0.160000 0
0.580000 0.160000 0
0.600000 0.160000 0
0.620000 0.160000 0
0.640000 0.160000 0
0.660000 0.160000 0
0.680000 0.160000 0
0.700000 0.160000 0
0.720000 0.160000 0
0.740000 0.160000 0
0.760000 0.160000 0
0.780000 0.160000 0
0.800000 0.160000 0
0.820000 0.160000 0
0.840000 0.160000 0
0.860000 0.160000 0
0.880000 0.160000 0
0.900000 0.160000 0
0.920000 0.160000 0
0.940000 0.160000 0
0.960000 0.160000 0
0.980000 0.160000 0
1.000000 0.160000 0
0.000000 0.180000 0
0.020000 0.180000 0
0.040000 0.180000 0
0.060000 0.180000 0
0.080000 0.180000 0
0.100000 0.180000 0
0.120000 0.180000 0
0.140000 0.180000 0
0.160000 0.180000 0
0.180000 0.180000 0
0.200000 0.180000 0
0.220000 0.180000 0
0.240000 0.180000 0
0.260000 0.180000 0
0.280000 0.180000 0
0.300000 0.180000 0
0.320000 0.180000 0
0.340000 0.180000 0
0.360000 0.180000 0
0.380000 0.180000 0
0.400000 0.180000 0
0.420000 0.180000 0
0.440000 0.180000 0
0.460000 0.180000 0
0.480000 0.180000 0
0.500000 0.180000 0
0.520000 0.180000 0
0.540000 0.180000 0
0.560000 0.180000 0
0.580000 0.180000 0
0.600000 0.180000 0
0.620000 0.180000 0
[...]
POINT_DATA 2601 

VECTORS velocity float
0.000000 0.000000 0
0.000000 0.000000 0
-0.000000 0.000000 0
-0.000000 0.000000 0
-0.000000 0.000000 0
-0.000000 0.000000 0
0.000000 0.000000 0
0.000000 0.000000 0
0.000000 0.000000 0
0.000000 0.000000 0
0.000000 0.000000 0
0.000000 0.000000 0
0.000000 0.000000 0
0.000000 0.000000 0
-0.000000 0.000000 0
-0.000000 0.000000 0
-0.000000 0.000000 0
-0.000000 0.000000 0
-0.000000 0.000000 0
0.000000 0.000000 0
0.000000 0.000000 0
0.000000 0.000000 0
0.000000 0.000000 0
-0.000000 0.000000 0
-0.000000 0.000000 0
-0.000000 0.000000 0
-0.000000 0.000000 0
-0.000000 0.000000 0
-0.000000 0.000000 0
0.000000 0.000000 0
0.000000 0.000000 0
-0.000000 0.000000 0
-0.000000 0.000000 0
-0.000000 0.000000 0
-0.000000 0.000000 0
-0.000000 0.000000 0
-0.000000 0.000000 0
0.000000 0.000000 0
0.000000 0.000000 0
0.000000 0.000000 0
0.000000 0.000000 0
0.000000 0.000000 0
0.000000 0.000000 0
-0.000000 0.000000 0
-0.000000 0.000000 0
-0.000000 0.000000 0
0.000000 0.000000 0
0.000000 0.000000 0
0.000000 0.000000 0
0.000000 0.000000 0
0.000000 0.000000 0
0.000000 0.000000 0
0.000060 -0.000059 0
0.000081 -0.000023 0
-0.000015 0.000055 0
-0.000256 0.000143 0
-0.000645 0.000227 0
-0.001170 0.000301 0
-0.001813 0.000362 0
-0.002553 0.000411 0
-0.003371 0.000448 0
-0.004246 0.000475 0
-0.005162 0.000493 0
-0.006101 0.000502 0
-0.007050 0.000503 0
-0.007994 0.000497 0
-0.008920 0.000485 0
-0.009815 0.000466 0
-0.010666 0.000441 0
-0.011463 0.000410 0
-0.012191 0.000371 0
-0.012838 0.000326 0
-0.013393 0.000274 0
-0.013844 0.000216 0
-0.014179 0.000152 0
-0.014389 0.000082 0
-0.014465 0.000009 0
-0.014401 -0.000068 0
-0.014194 -0.000146 0
-0.013843 -0.000224 0
-0.013350 -0.000300 0
-0.012722 -0.000373 0
-0.011967 -0.000438 0
-0.011099 -0.000496 0
-0.010136 -0.000543 0
-0.009098 -0.000578 0
-0.008007 -0.000599 0
-0.006890 -0.000606 0
-0.005773 -0.000598 0
-0.004683 -0.000573 0
-0.003649 -0.000534 0
-0.002696 -0.000481 0
-0.001847 -0.000415 0
-0.001123 -0.000339 0
-0.000540 -0.000255 0
-0.000107 -0.000167 0
0.000172 -0.000079 0
0.000303 0.000001 0
0.000305 0.000066 0
0.000212 0.000100 0
0.000082 0.000082 0
0.000000 0.000000 0
0.000000 -0.000000 0
0.000024 -0.000081 0
-0.000076 0.000074 0
-0.000386 0.000337 0
-0.000943 0.000630 0
-0.001751 0.000914 0
-0.002793 0.001168 0
-0.004040 0.001384 0
-0.005458 0.001558 0
-0.007015 0.001693 0
-0.008675 0.001791 0
-0.010409 0.001855 0
-0.012185 0.001888 0
-0.013975 0.001892 0
-0.015754 0.001869 0
-0.017497 0.001820 0
-0.019178 0.001747 0
-0.020775 0.001648 0
-0.022264 0.001525 0
-0.023621 0.001376 0
-0.024823 0.001203 0
-0.025848 0.001005 0
-0.026676 0.000785 0
-0.027285 0.000545 0
-0.027660 0.000286 0
-0.027786 0.000013 0
-0.027652 -0.000270 0
-0.027254 -0.000558 0
-0.026590 -0.000844 0
-0.025667 -0.001122 0
-0.024495 -0.001384 0
-0.023093 -0.001622 0
-0.021485 -0.001831 0
-0.019703 -0.002002 0
-0.017783 -0.002129 0
-0.015767 -0.002208 0
-0.013700 -0.002234 0
-0.011629 -0.002206 0
-0.009604 -0.002124 0
-0.007674 -0.001988 0
-0.005883 -0.001802 0
-0.004274 -0.001573 0
-0.002882 -0.001307 0
-0.001735 -0.001016 0
-0.000850 -0.000712 0
-0.000232 -0.000410 0
0.000131 -0.000133 0
0.000267 0.000091 0
0.000231 0.000223 0
0.000102 0.000212 0
0.000000 0.000000 0
0.000000 -0.000000 0
-0.000057 0.000015 0
-0.000350 0.000386 0
-0.000947 0.000923 0
-0.001876 0.001509 0
-0.003134 0.002077 0
-0.004696 0.002589 0
-0.006528 0.003028 0
-0.008588 0.003387 0
-0.010831 0.003666 0
-0.013212 0.003869 0
-0.015690 0.004001 0
-0.018222 0.004067 0
-0.020771 0.004072 0
-0.023299 0.004019 0
-0.025771 0.003909 0
-0.028153 0.003745 0
-0.030409 0.003527 0
-0.032508 0.003255 0
-0.034417 0.002930 0
-0.036103 0.002553 0
-0.037536 0.002126 0
-0.038686 0.001653 0
-0.039528 0.001136 0
-0.040039 0.000583 0
-0.040201 0.000001 0
-0.039999 -0.000600 0
-0.039429 -0.001208 0
-0.038490 -0.001812 0
-0.037190 -0.002396 0
-0.035547 -0.002947 0
-0.033585 -0.003448 0
-0.031338 -0.003885 0
-0.028849 -0.004245 0
-0.026167 -0.004514 0
-0.023349 -0.004683 0
-0.020454 -0.004744 0
-0.017549 -0.004693 0
-0.014698 -0.004529 0
-0.011967 -0.004256 0
-0.009417 -0.003881 0
-0.007105 -0.003416 0
-0.005078 -0.002878 0
-0.003373 -0.002287 0
-0.002015 -0.001671 0
-0.001009 -0.001060 0
-0.000345 -0.000497 0
0.000012 -0.000034 0
0.000122 0.000265 0
0.000076 0.000312 0
0.000000 0.000000 0
0.000000 -0.000000 0
-0.000154 0.000268 0
-0.000676 0.000965 0
-0.001601 0.001863 0
-0.002936 0.002817 0
-0.004666 0.003734 0
-0.006757 0.004563 0
-0.009166 0.005275 0
-0.011843 0.005861 0
-0.014736 0.006317 0
-0.017791 0.006650 0
-0.020958 0.006865 0
-0.024187 0.006969 0
-0.027429 0.006969 0
-0.030639 0.006870 0
-0.033772 0.006674 0
-0.036785 0.006385 0
-0.039636 0.006004 0
-0.042283 0.005532 0
-0.044685 0.004970 0
-0.046802 0.004321 0
-0.048597 0.003588 0
-0.050035 0.002778 0
-0.051084 0.001898 0
-0.051716 0.000958 0
-0.051911 -0.000027 0
-0.051653 -0.001042 0
-0.050934 -0.002068 0
-0.049756 -0.003083 0
-0.048129 -0.004065 0
-0.046076 -0.004989 0
-0.043625 -0.005831 0
-0.040820 -0.006566 0
-0.037710 -0.007172 0
-0.034356 -0.007630 0
-0.030826 -0.007921 0
-0.027193 -0.008034 0
-0.023536 -0.007963 0
-0.019933 -0.007706 0
-0.016464 -0.007269 0
-0.013204 -0.006664 0
-0.010221 -0.005912 0
-0.007574 -0.005039 0
-0.005308 -0.004079 0
-0.003455 -0.003076 0
-0.002025 -0.002080 0
-0.001009 -0.001155 0
-0.000374 -0.000377 0
-0.000059 0.000159 0
0.000025 0.000335 0
0.000000 0.000000 0
0.000000 -0.000000 0
-0.000254 0.000691 0
-0.001019 0.001834 0
-0.002292 0.003184 0
-0.004052 0.004574 0
-0.006267 0.005898 0
-0.008890 0.007089 0
-0.011870 0.008114 0
-0.015148 0.008956 0
-0.018665 0.009613 0
-0.022360 0.010091 0
-0.026174 0.010396 0
-0.030052 0.010538 0
-0.033937 0.010525 0
-0.037777 0.010363 0
-0.041519 0.010056 0
-0.045113 0.009609 0
-0.048508 0.009024 0
-0.051656 0.008303 0
-0.054510 0.007449 0
-0.057023 0.006466 0
-0.059152 0.005360 0
-0.060857 0.004139 0
-0.062101 0.002817 0
-0.062853 0.001410 0
-0.063089 -0.000063 0
-0.062791 -0.001577 0
-0.061951 -0.003105 0
-0.060572 -0.004616 0
-0.058666 -0.006076 0
-0.056255 -0.007451 0
-0.053377 -0.008704 0
-0.050077 -0.009800 0
-0.046414 -0.010708 0
-0.042455 -0.011398 0
-0.038279 -0.011846 0
-0.033969 -0.012034 0
-0.029614 -0.011953 0
-0.025307 -0.011600 0
-0.021137 -0.010985 0
-0.017191 -0.010124 0
-0.013551 -0.009046 0
-0.010284 -0.007791 0
-0.007446 -0.006406 0
-0.005075 -0.004954 0
-0.003190 -0.003506 0
-0.001786 -0.002149 0
-0.000834 -0.000984 0
-0.000278 -0.000135 0
-0.000036 0.000254 0
0.000000 0.000000 0
0.000000 -0.000000 0
-0.000352 0.001287 0
-0.001362 0.003003 0
-0.002988 0.004896 0
-0.005179 0.006792 0
-0.007883 0.008573 0
-0.011038 0.010166 0
-0.014582 0.011533 0
-0.018447 0.012655 0
-0.022566 0.013528 0
-0.026874 0.014159 0
-0.031304 0.014557 0
-0.035795 0.014733 0
-0.040285 0.014695 0
-0.044715 0.014452 0
-0.049026 0.014010 0
-0.053161 0.013374 0
-0.057065 0.012547 0
-0.060683 0.011534 0
-0.063962 0.010337 0
-0.066850 0.008963 0
-0.069298 0.007422 0
-0.071263 0.005727 0
-0.072703 0.003894 0
-0.073583 0.001946 0
-0.073877 -0.000089 0
-0.073565 -0.002179 0
-0.072638 -0.004286 0
-0.071097 -0.006369 0
-0.068955 -0.008382 0
-0.066238 -0.010278 0
-0.062984 -0.012009 0
-0.059243 -0.013529 0
-0.055079 -0.014794 0
-0.050566 -0.015764 0
-0.045790 -0.016407 0
-0.040843 -0.016699 0
-0.035825 -0.016625 0
-0.030837 -0.016183 0
-0.025982 -0.015384 0
-0.021359 -0.014250 0
-0.017058 -0.012820 0
-0.013161 -0.011144 0
-0.009732 -0.009288 0
-0.006820 -0.007331 0
-0.004452 -0.005369 0
-0.002630 -0.003511 0
-0.001333 -0.001885 0
-0.000514 -0.000639 0
-0.000101 0.000057 0
0.000000 0.000000 0
0.000000 0.000000 0
-0.000447 0.002054 0
-0.001698 0.004470 0
-0.003672 0.007001 0
-0.006291 0.009469 0
-0.009480 0.011757 0
-0.013161 0.013788 0
-0.017259 0.015522 0
-0.021697 0.016940 0
-0.026401 0.018040 0
-0.031298 0.018829 0
-0.036319 0.019318 0
-0.041394 0.019520 0
-0.046459 0.019445 0
-0.051448 0.019103 0
-0.056299 0.018503 0
-0.060949 0.017649 0
-0.065337 0.016546 0
-0.069405 0.015200 0
-0.073093 0.013616 0
-0.076347 0.011803 0
-0.079113 0.009773 0
-0.081341 0.007543 0
-0.082988 0.005137 0
-0.084016 0.002584 0
-0.084394 -0.000081 0
-0.084100 -0.002816 0
-0.083123 -0.005573 0
-0.081463 -0.008298 0
-0.079132 -0.010935 0
-0.076156 -0.013422 0
-0.072573 -0.015699 0
-0.068437 -0.017705 0
-0.063816 -0.019385 0
-0.058787 -0.020687 0
-0.053443 -0.021569 0
-0.047885 -0.022000 0
-0.042220 -0.021959 0
-0.036561 -0.021443 0
-0.031022 -0.020463 0
-0.025712 -0.019048 0
-0.020737 -0.017245 0
-0.016188 -0.015117 0
-0.012144 -0.012747 0
-0.008662 -0.010234 0
-0.005782 -0.007696 0
-0.003517 -0.005267 0
-0.001855 -0.003100 0
-0.000758 -0.001366 0
-0.000166 -0.000260 0
0.000000 0.000000 0
0.000000 0.000000 0
-0.000537 0.002985 0
-0.002020 0.006228 0
-0.004334 0.009490 0
-0.007373 0.012600 0
-0.011037 0.015443 0
-0.015233 0.017945 0
-0.019872 0.020068 0
-0.024867 0.021796 0
-0.030138 0.023129 0
-0.035604 0.024078 0
-0.041192 0.024654 0
-0.046829 0.024873 0
-0.052445 0.024748 0
-0.057970 0.024291 0
-0.063339 0.023510 0
-0.068485 0.022412 0
-0.073342 0.021004 0
-0.077849 0.019290 0
-0.081942 0.017279 0
-0.085563 0.014983 0
-0.088653 0.012417 0
-0.091160 0.009602 0
-0.093036 0.006569 0
-0.094238 0.003351 0
-0.094734 -0.000005 0
-0.094497 -0.003450 0
-0.093514 -0.006923 0
-0.091781 -0.010360 0
-0.089308 -0.013689 0
-0.086120 -0.016837 0
-0.082255 -0.019727 0
-0.077767 -0.022287 0
-0.072725 -0.024445 0
-0.067211 -0.026137 0
-0.061323 -0.027310 0
-0.055167 -0.027922 0
-0.048861 -0.027949 0
-0.042528 -0.027381 0
-0.036292 -0.026232 0
-0.030278 -0.024535 0
-0.024603 -0.022344 0
-0.019372 -0.019737 0
-0.014680 -0.016813 0
-0.010597 -0.013692 0
-0.007175 -0.010514 0
-0.004441 -0.007439 0
-0.002393 -0.004644 0
-0.001006 -0.002327 0
-0.000231 -0.000701 0
0.000000 0.000000 0
0.000000 0.000000 0
-0.000623 0.004074 0
-0.002329 0.008267 0
-0.004970 0.012353 0
-0.008413 0.016172 0
-0.012538 0.019617 0
-0.017234 0.022623 0
-0.022397 0.025155 0
-0.027932 0.027206 0
-0.033750 0.028778 0
-0.039767 0.029885 0
-0.045902 0.030544 0
-0.052080 0.030772 0
-0.058226 0.030585 0
-0.064270 0.029997 0
-0.070141 0.029016 0
-0.075769 0.027652 0
-0.081089 0.025911 0
-0.086031 0.023800 0
-0.090532 0.021330 0
-0.094528 0.018513 0
-0.097959 0.015370 0
-0.100766 0.011926 0
-0.102900 0.008216 0
-0.104312 0.004282 0
-0.104966 0.000178 0
-0.104832 -0.004036 0
-0.103891 -0.008290 0
-0.102136 -0.012504 0
-0.099573 -0.016596 0
-0.096223 -0.020475 0
-0.092122 -0.024052 0
-0.087324 -0.027236 0
-0.081896 -0.029941 0
-0.075925 -0.032089 0
-0.069510 -0.033613 0
-0.062765 -0.034461 0
-0.055816 -0.034598 0
-0.048796 -0.034012 0
-0.041844 -0.032713 0
-0.035096 -0.030738 0
-0.028686 -0.028150 0
-0.022737 -0.025040 0
-0.017356 -0.021522 0
-0.012634 -0.017739 0
-0.008637 -0.013853 0
-0.005404 -0.010050 0
-0.002950 -0.006534 0
-0.001260 -0.003528 0
-0.000297 -0.001267 0
0.000000 0.000000 0
0.000000 0.000000 0
-0.000704 0.005314 0
-0.002621 0.010574 0
-0.005575 0.015575 0
-0.009406 0.020169 0
-0.013974 0.024263 0
-0.019149 0.027803 0
-0.024817 0.030766 0
-0.030872 0.033150 0
-0.037216 0.034964 0
-0.043762 0.036230 0
-0.050424 0.036967 0
-0.057124 0.037197 0
-0.063784 0.036938 0
-0.070330 0.036205 0
-0.076691 0.035010 0
-0.082795 0.033361 0
-0.088573 0.031266 0
-0.093954 0.028734 0
-0.098871 0.025776 0
-0.103257 0.022409 0
-0.107049 0.018655 0
-0.110186 0.014543 0
-0.112612 0.010115 0
-0.114277 0.005418 0
-0.115136 0.000515 0
-0.115156 -0.004525 0
-0.114311 -0.009620 0
-0.112590 -0.014678 0
-0.109993 -0.019602 0
-0.106534 -0.024287 0
-0.102248 -0.028627 0
-0.097183 -0.032513 0
-0.091406 -0.035844 0
-0.085003 -0.038524 0
-0.078078 -0.040469 0
-0.070750 -0.041616 0
-0.063152 -0.041917 0
-0.055430 -0.041354 0
-0.047733 -0.039933 0
-0.040217 -0.037693 0
-0.033030 -0.034703 0
-0.026316 -0.031067 0
-0.020202 -0.026916 0
-0.014796 -0.022412 0
-0.010182 -0.017745 0
-0.006418 -0.013126 0
-0.003532 -0.008788 0
-0.001523 -0.004980 0
-0.000363 -0.001961 0
0.000000 0.000000 0
0.000000 0.000000 0
-0.000780 0.006696 0
-0.002897 0.013137 0
-0.006146 0.019137 0
-0.010345 0.024571 0
-0.015333 0.029360 0
-0.020965 0.033466 0
-0.027115 0.036878 0
-0.033666 0.039606 0
-0.040515 0.041669 0
-0.047568 0.043093 0
-0.054736 0.043905 0
-0.061938 0.044131 0
-0.069094 0.043792 0
-0.076130 0.042904 0
-0.082971 0.041482 0
-0.089545 0.039534 0
-0.095780 0.037069 0
-0.101605 0.034098 0
-0.106950 0.030633 0
-0.111746 0.026692 0
-0.115925 0.022299 0
-0.119425 0.017489 0
-0.122183 0.012306 0
-0.124146 0.006806 0
-0.125262 0.001057 0
-0.125492 -0.004861 0
-0.124804 -0.010856 0
-0.123178 -0.016823 0
-0.120607 -0.022651 0
-0.117100 -0.028219 0
-0.112682 -0.033403 0
-0.107399 -0.038078 0
-0.101313 -0.042120 0
-0.094510 -0.045417 0
-0.087094 -0.047867 0
-0.079189 -0.049387 0
-0.070936 -0.049919 0
-0.062491 -0.049431 0
-0.054021 -0.047926 0
-0.045696 -0.045441 0
-0.037686 -0.042050 0
-0.030156 -0.037868 0
-0.023254 -0.033043 0
-0.017112 -0.027759 0
-0.011834 -0.022231 0
-0.007498 -0.016700 0
-0.004149 -0.011429 0
-0.001800 -0.006696 0
-0.000432 -0.002789 0
0.000000 0.000000 0
0.000000 0.000000 0
-0.000852 0.008211 0
-0.003155 0.015939 0
-0.006680 0.023022 0
-0.011224 0.029355 0
-0.016608 0.034883 0
-0.022671 0.039586 0
-0.029276 0.043467 0
-0.036297 0.046551 0
-0.043626 0.048867 0
-0.051161 0.050451 0
-0.058813 0.051337 0
-0.066496 0.051555 0
-0.074131 0.051130 0
-0.081642 0.050082 0
-0.088953 0.048425 0
-0.095991 0.046169 0
-0.102684 0.043326 0
-0.108960 0.039904 0
-0.114746 0.035917 0
-0.119971 0.031385 0
-0.124566 0.026334 0
-0.128463 0.020801 0
-0.131597 0.014835 0
-0.133906 0.008497 0
-0.135336 0.001861 0
-0.135836 -0.004983 0
-0.135369 -0.011934 0
-0.133905 -0.018875 0
-0.131427 -0.025680 0
-0.127937 -0.032212 0
-0.123450 -0.038328 0
-0.118004 -0.043882 0
-0.111657 -0.048733 0
-0.104490 -0.052743 0
-0.096607 -0.055791 0
-0.088136 -0.057774 0
-0.079225 -0.058614 0
-0.070041 -0.058269 0
-0.060767 -0.056728 0
-0.051591 -0.054027 0
-0.042707 -0.050243 0
-0.034303 -0.045499 0
-0.026554 -0.039960 0
-0.019616 -0.033832 0
-0.013620 -0.027358 0
-0.008664 -0.020811 0
-0.004814 -0.014487 0
-0.002097 -0.008696 0
-0.000506 -0.003761 0
0.000000 0.000000 0
0.000000 0.000000 0
-0.000918 0.009851 0
-0.003393 0.018965 0
-0.007174 0.027207 0
-0.012039 0.034498 0
-0.017790 0.040807 0
-0.024256 0.046135 0
-0.031285 0.050505 0
-0.038748 0.053956 0
-0.046526 0.056532 0
-0.054517 0.058279 0
-0.062627 0.059240 0
-0.070769 0.059449 0
-0.078863 0.058937 0
-0.086832 0.057726 0
-0.094601 0.055831 0
-0.102098 0.053265 0
-0.109248 0.050038 0
-0.115979 0.046160 0
-0.122218 0.041645 0
-0.127893 0.036512 0
-0.132931 0.030791 0
-0.137261 0.024520 0
-0.140812 0.017749 0
-0.143519 0.010545 0
-0.145318 0.002987 0
-0.146153 -0.004828 0
-0.145975 -0.012787 0
-0.144744 -0.020765 0
-0.142434 -0.028619 0
-0.139032 -0.036197 0
-0.134546 -0.043336 0
-0.129002 -0.049871 0
-0.122450 -0.055635 0
-0.114965 -0.060467 0
-0.106649 -0.064221 0
-0.097631 -0.066769 0
-0.088066 -0.068013 0
-0.078132 -0.067889 0
-0.068026 -0.066376 0
-0.057958 -0.063500 0
-0.048147 -0.059339 0
-0.038808 -0.054021 0
-0.030146 -0.047730 0
-0.022346 -0.040693 0
-0.015568 -0.033183 0
-0.009937 -0.025506 0
-0.005540 -0.017997 0
-0.002421 -0.011004 0
-0.000587 -0.004886 0
0.000000 0.000000 0
0.000000 0.000000 0
-0.000978 0.011604 0
-0.003610 0.022195 0
-0.007625 0.031668 0
-0.012783 0.039971 0
-0.018871 0.047101 0
-0.025706 0.053082 0
-0.033128 0.057960 0
-0.040999 0.061791 0
-0.049195 0.064636 0
-0.057610 0.066551 0
-0.066149 0.067588 0
-0.074724 0.067791 0
-0.083254 0.067193 0
-0.091662 0.065820 0
-0.099875 0.063690 0
-0.107818 0.060815 0
-0.115421 0.057207 0
-0.122610 0.052874 0
-0.129311 0.047831 0
-0.135452 0.042098 0
-0.140957 0.035701 0
-0.145752 0.028683 0
-0.149763 0.021094 0
-0.152917 0.013003 0
-0.155143 0.004496 0
-0.156377 -0.004327 0
-0.156558 -0.013343 0
-0.155636 -0.022417 0
-0.153571 -0.031392 0
-0.150339 -0.040099 0
-0.145932 -0.048358 0
-0.140364 -0.055979 0
-0.133675 -0.062770 0
-0.125931 -0.068544 0
-0.117228 -0.073124 0
-0.107696 -0.076356 0
-0.097491 -0.078114 0
-0.086803 -0.078309 0
-0.075844 -0.076902 0
-0.064848 -0.073906 0
-0.054058 -0.069394 0
-0.043721 -0.063500 0
-0.034075 -0.056422 0
-0.025341 -0.048409 0
-0.017711 -0.039767 0
-0.011339 -0.030840 0
-0.006341 -0.022002 0
-0.002780 -0.013649 0
-0.000676 -0.006182 0
0.000000 0.000000 0
0.000000 -0.000000 0
-0.001031 0.013460 0
-0.003804 0.025612 0
-0.008029 0.036379 0
-0.013450 0.045744 0
-0.019842 0.053731 0
-0.027011 0.060392 0
-0.034789 0.065797 0
-0.043031 0.070022 0
-0.051609 0.073144 0
-0.060414 0.075234 0
-0.069349 0.076353 0
-0.078325 0.076554 0
-0.087264 0.075875 0
-0.096087 0.074346 0
-0.104722 0.071987 0
-0.113098 0.068811 0
-0.121144 0.064829 0
-0.128787 0.060050 0
-0.135954 0.054487 0
-0.142571 0.048158 0
-0.148563 0.041091 0
-0.153851 0.033325 0
-0.158357 0.024913 0
-0.162003 0.015925 0
-0.164711 0.006447 0
-0.166406 -0.003413 0
-0.167018 -0.013528 0
-0.166482 -0.023751 0
-0.164747 -0.033916 0
-0.161770 -0.043836 0
-0.157530 -0.053311 0
-0.152026 -0.062128 0
-0.145281 -0.070068 0
-0.137351 -0.076914 0
-0.128323 -0.082456 0
-0.118322 -0.086506 0
-0.107507 -0.088906 0
-0.096075 -0.089536 0
-0.084254 -0.088331 0
-0.072299 -0.085287 0
-0.060482 -0.080466 0
-0.049085 -0.074004 0
-0.038384 -0.066109 0
-0.028637 -0.057057 0
-0.020077 -0.047184 0
-0.012893 -0.036876 0
-0.007231 -0.026556 0
-0.003180 -0.016668 0
-0.000777 -0.007667 0
0.000000 -0.000000 0
0.000000 -0.000000 0
-0.001078 0.015407 0
-0.003974 0.029193 0
-0.008382 0.041314 0
-0.014034 0.051785 0
-0.020694 0.060663 0
-0.028159 0.068029 0
-0.036253 0.073978 0
-0.044824 0.078610 0
-0.053744 0.082019 0
-0.062900 0.084291 0
-0.072193 0.085500 0
-0.081536 0.085706 0
-0.090849 0.084955 0
-0.100057 0.083279 0
-0.109088 0.080702 0
-0.117875 0.077237 0
-0.126346 0.072895 0
-0.134432 0.067684 0
-0.142060 0.061616 0
-0.149157 0.054706 0
-0.155645 0.046981 0
-0.161445 0.038476 0
-0.166476 0.029246 0
-0.170653 0.019357 0
-0.173891 0.008899 0
-0.176107 -0.002019 0
-0.177219 -0.013267 0
-0.177149 -0.024687 0
-0.175828 -0.036104 0
-0.173200 -0.047316 0
-0.169224 -0.058103 0
-0.163880 -0.068228 0
-0.157175 -0.077445 0
-0.149149 -0.085501 0
-0.139876 -0.092153 0
-0.129472 -0.097172 0
-0.118095 -0.100361 0
-0.105947 -0.101562 0
-0.093269 -0.100678 0
-0.080337 -0.097677 0
-0.067455 -0.092607 0
-0.054941 -0.085599 0
-0.043111 -0.076869 0
-0.032271 -0.066717 0
-0.022697 -0.055511 0
-0.014621 -0.043686 0
-0.008225 -0.031716 0
-0.003629 -0.020103 0
-0.000890 -0.009362 0
0.000000 -0.000000 0
0.000000 -0.000000 0
-0.001118 0.017433 0
-0.004116 0.032916 0
-0.008680 0.046440 0
-0.014529 0.058057 0
-0.021419 0.067856 0
-0.029138 0.075950 0
-0.037503 0.082462 0
-0.046361 0.087513 0
-0.055578 0.091219 0
-0.065040 0.093683 0
-0.074648 0.094989 0
-0.084315 0.095210 0
-0.093963 0.094396 0
-0.103518 0.092586 0
-0.112912 0.089806 0
-0.122078 0.086069 0
-0.130949 0.081386 0
-0.139457 0.075764 0
-0.147531 0.069212 0
-0.155099 0.061743 0
-0.162085 0.053380 0
-0.168406 0.044156 0
-0.173980 0.034121 0
-0.178717 0.023340 0
-0.182526 0.011902 0
-0.185315 -0.000085 0
-0.186990 -0.012487 0
-0.187460 -0.025142 0
-0.186641 -0.037865 0
-0.184458 -0.050440 0
-0.180850 -0.062631 0
-0.175776 -0.074176 0
-0.169222 -0.084799 0
-0.161207 -0.094213 0
-0.151789 -0.102133 0
-0.141071 -0.108287 0
-0.129203 -0.112431 0
-0.116389 -0.114362 0
-0.102879 -0.113941 0
-0.088971 -0.111100 0
-0.074997 -0.105863 0
-0.061315 -0.098349 0
-0.048289 -0.088779 0
-0.036274 -0.077471 0
-0.025598 -0.064834 0
-0.016544 -0.051348 0
-0.009337 -0.037548 0
-0.004134 -0.024003 0
-0.001018 -0.011296 0
0.000000 -0.000000 0
0.000000 -0.000000 0
-0.001149 0.019524 0
-0.004231 0.036756 0
-0.008921 0.051727 0
-0.014931 0.064524 0
-0.022009 0.075271 0
-0.029936 0.084113 0
-0.038527 0.091202 0
-0.047622 0.096685 0
-0.057087 0.100698 0
-0.066806 0.103361 0
-0.076681 0.104776 0
-0.086624 0.105021 0
-0.096559 0.104157 0
-0.106416 0.102228 0
-0.116129 0.099262 0