# vtk DataFile Version 2.0
generated by CFD-lab course output (written by Tobias Neckel) 
ASCII

DATASET STRUCTURED_GRID
DIMENSIONS  51 51 1 
POINTS 2601 float

0.000000 0.000000 0
0.020000 0.000000 0
0.040000 0.000000 0
0.060000 0.000000 0
0.080000 0.000000 0
0.100000 0.000000 0
0.120000 0.000000 0
0.140000 0.000000 0
0.160000 0.000000 0
0.180000 0.000000 0
0.200000 0.000000 0
0.220000 0.000000 0
0.240000 0.000000 0
0.260000 0.000000 0
0.280000 0.000000 0
0.300000 0.000000 0
0.320000 0.000000 0
0.340000 0.000000 0
0.360000 0.000000 0
0.380000 0.000000 0
0.400000 0.000000 0
0.420000 0.000000 0
0.440000 0.000000 0
0.460000 0.000000 0
0.480000 0.000000 0
0.500000 0.000000 0
0.520000 0.000000 0
0.540000 0.000000 0
0.560000 0.000000 0
0.580000 0.000000 0
0.600000 0.000000 0
0.620000 0.000000 0
0.640000 0.000000 0
0.660000 0.000000 0
0.680000 0.000000 0
0.700000 0.000000 0
0.720000 0.000000 0
0.740000 0.000000 0
0.760000 0.000000 0
0.780000 0.000000 0
0.800000 0.000000 0
0.820000 0.000000 0
0.840000 0.000000 0
0.860000 0.000000 0
0.880000 0.000000 0
0.900000 0.000000 0
0.920000 0.000000 0
0.940000 0.000000 0
0.960000 0.000000 0
0.980000 0.000000 0
1.000000 0.000000 0
0.000000 0.020000 0
0.020000 0.020000 0
0.040000 0.020000 0
0.060000 0.020000 0
0.080000 0.020000 0
0.100000 0.020000 0
0.120000 0.020000 0
0.140000 0.020000 0
0.160000 0.020000 0
0.180000 0.020000 0
0.200000 0.020000 0
0.220000 0.020000 0
0.240000 0.020000 0
0.260000 0.020000 0
0.280000 0.020000 0
0.300000 0.020000 0
0.320000 0.020000 0
0.340000 0.020000 0
0.360000 0.020000 0
0.380000 0.020000 0
0.400000 0.020000 0
0.420000 0.020000 0
0.440000 0.020000 0
0.460000 0.020000 0
0.480000 0.020000 0
0.500000 0.020000 0
0.520000 0.020000 0
0.540000 0.020000 0
0.560000 0.020000 0
0.580000 0.020000 0
0.600000 0.020000 0
0.620000 0.020000 0
0.640000 0.020000 0
0.660000 0.020000 0
0.680000 0.020000 0
0.700000 0.020000 0
0.720000 0.020000 0
0.740000 0.020000 0
0.760000 0.020000 0
0.780000 0.020000 0
0.800000 0.020000 0
0.820000 0.020000 0
0.840000 0.020000 0
0.860000 0.020000 0
0.880000 0.020000 0
0.900000 0.020000 0
0.920000 0.020000 0
0.940000 0.020000 0
0.960000 0.020000 0
0.980000 0.020000 0
1.000000 0.020000 0
0.000000 0.040000 0
0.020000 0.040000 0
0.040000 0.040000 0
0.060000 0.040000 0
0.080000 0.040000 0
0.100000 0.040000 0
0.120000 0.040000 0
0.140000 0.040000 0
0.160000 0.040000 0
0.180000 0.040000 0
0.200000 0.040000 0
0.220000 0.040000 0
0.240000 0.040000 0
0.260000 0.040000 0
0.280000 0.040000 0
0.300000 0.040000 0
0.320000 0.040000 0
0.340000 0.040000 0
0.360000 0.040000 0
0.380000 0.040000 0
0.400000 0.040000 0
0.420000 0.040000 0
0.440000 0.040000 0
0.460000 0.040000 0
0.480000 0.040000 0
0.500000 0.040000 0
0.520000 0.040000 0
0.540000 0.040000 0
0.560000 0.040000 0
0.580000 0.040000 0
0.600000 0.040000 0
0.620000 0.040000 0
0.640000 0.040000 0
0.660000 0.040000 0
0.680000 0.040000 0
0.700000 0.040000 0
0.720000 0.040000 0
0.740000 0.040000 0
0.760000 0.040000 0
0.780000 0.040000 0
0.800000 0.040000 0
0.820000 0.040000 0
0.840000 0.040000 0
0.860000 0.040000 0
0.880000 0.040000 0
0.900000 0.040000 0
0.920000 0.040000 0
0.940000 0.040000 0
0.960000 0.040000 0
0.980000 0.040000 0
1.000000 0.040000 0
0.000000 0.060000 0
0.020000 0.060000 0
0.040000 0.060000 0
0.060000 0.060000 0
0.080000 0.060000 0
0.100000 0.060000 0
0.120000 0.060000 0
0.140000 0.060000 0
0.160000 0.060000 0
0.180000 0.060000 0
0.200000 0.060000 0
0.220000 0.060000 0
0.240000 0.060000 0
0.260000 0.060000 0
0.280000 0.060000 0
0.300000 0.060000 0
0.320000 0.060000 0
0.340000 0.060000 0
0.360000 0.060000 0
0.380000 0.060000 0
0.400000 0.060000 0
0.420000 0.060000 0
0.440000 0.060000 0
0.460000 0.060000 0
0.480000 0.060000 0
0.500000 0.060000 0
0.520000 0.060000 0
0.540000 0.060000 0
0.560000 0.060000 0
0.580000 0.060000 0
0.600000 0.060000 0
0.620000 0.060000 0
0.640000 0.060000 0
0.660000 0.060000 0
0.680000 0.060000 0
0.700000 0.060000 0
0.720000 0.060000 0
0.740000 0.060000 0
0.760000 0.060000 0
0.780000 0.060000 0
0.800000 0.060000 0
0.820000 0.060000 0
0.840000 0.060000 0
0.860000 0.060000 0
0.880000 0.060000 0
0.900000 0.060000 0
0.920000 0.060000 0
0.940000 0.060000 0
0.960000 0.060000 0
0.980000 0.060000 0
1.000000 0.060000 0
0.000000 0.080000 0
0.020000 0.080000 0
0.040000 0.080000 0
0.060000 0.080000 0
0.080000 0.080000 0
0.100000 0.080000 0
0.120000 0.080000 0
0.140000 0.080000 0
0.160000 0.080000 0
0.180000 0.080000 0
0.200000 0.080000 0
0.220000 0.080000 0
0.240000 0.080000 0
0.260000 0.080000 0
0.280000 0.080000 0
0.300000 0.080000 0
0.320000 0.080000 0
0.340000 0.080000 0
0.360000 0.080000 0
0.380000 0.080000 0
0.400000 0.080000 0
0.420000 0.080000 0
0.440000 0.080000 0
0.460000 0.080000 0
0.480000 0.080000 0
0.500000 0.080000 0
0.520000 0.080000 0
0.540000 0.080000 0
0.560000 0.080000 0
0.580000 0.080000 0
0.600000 0.080000 0
0.620000 0.080000 0
0.640000 0.080000 0
0.660000 0.080000 0
0.680000 0.080000 0
0.700000 0.080000 0
0.720000 0.080000 0
0.740000 0.080000 0
0.760000 0.080000 0
0.780000 0.080000 0
0.800000 0.080000 0
0.820000 0.080000 0
0.840000 0.080000 0
0.860000 0.080000 0
0.880000 0.080000 0
0.900000 0.080000 0
0.920000 0.080000 0
0.940000 0.080000 0
0.960000 0.080000 0
0.980000 0.080000 0
1.000000 0.080000 0
0.000000 0.100000 0
0.020000 0.100000 0
0.040000 0.100000 0
0.060000 0.100000 0
0.080000 0.100000 0
0.100000 0.100000 0
0.120000 0.100000 0
0.140000 0.100000 0
0.160000 0.100000 0
0.180000 0.100000 0
0.200000 0.100000 0
0.220000 0.100000 0
0.240000 0.100000 0
0.260000 0.100000 0
0.280000 0.100000 0
0.300000 0.100000 0
0.320000 0.100000 0
0.340000 0.100000 0
0.360000 0.100000 0
0.380000 0.100000 0
0.400000 0.100000 0
0.420000 0.100000 0
0.440000 0.100000 0
0.460000 0.100000 0
0.480000 0.100000 0
0.500000 0.100000 0
0.520000 0.100000 0
0.540000 0.100000 0
0.560000 0.100000 0
0.580000 0.100000 0
0.600000 0.100000 0
0.620000 0.100000 0
0.640000 0.100000 0
0.660000 0.100000 0
0.680000 0.100000 0
0.700000 0.100000 0
0.720000 0.100000 0
0.740000 0.100000 0
0.760000 0.100000 0
0.780000 0.100000 0
0.800000 0.100000 0
0.820000 0.100000 0
0.840000 0.100000 0
0.860000 0.100000 0
0.880000 0.100000 0
0.900000 0.100000 0
0.920000 0.100000 0
0.940000 0.100000 0
0.960000 0.100000 0
0.980000 0.100000 0
1.000000 0.100000 0
0.000000 0.120000 0
0.020000 0.120000 0
0.040000 0.120000 0
0.060000 0.120000 0
0.080000 0.120000 0
0.100000 0.120000 0
0.120000 0.120000 0
0.140000 0.120000 0
0.160000 0.120000 0
0.180000 0.120000 0
0.200000 0.120000 0
0.220000 0.120000 0
0.240000 0.120000 0
0.260000 0.120000 0
0.280000 0.120000 0
0.300000 0.120000 0
0.320000 0.120000 0
0.340000 0.120000 0
0.360000 0.120000 0
0.380000 0.120000 0
0.400000 0.120000 0
0.420000 0.120000 0
0.440000 0.120000 0
0.460000 0.120000 0
0.480000 0.120000 0
0.500000 0.120000 0
0.520000 0.120000 0
0.540000 0.120000 0
0.560000 0.120000 0
0.580000 0.120000 0
0.600000 0.120000 0
0.620000 0.120000 0
0.640000 0.120000 0
0.660000 0.120000 0
0.680000 0.120000 0
0.700000 0.120000 0
0.720000 0.120000 0
0.740000 0.120000 0
0.760000 0.120000 0
0.780000 0.120000 0
0.800000 0.120000 0
0.820000 0.120000 0
0.840000 0.120000 0
0.860000 0.120000 0
0.880000 0.120000 0
0.900000 0.120000 0
0.920000 0.120000 0
0.940000 0.120000 0
0.960000 0.120000 0
0.980000 0.120000 0
1.000000 0.120000 0
0.000000 0.140000 0
0.020000 0.140000 0
0.040000 0.140000 0
0.060000 0.140000 0
0.080000 0.140000 0
0.100000 0.140000 0
0.120000 0.140000 0
0.140000 0.140000 0
0.160000 0.140000 0
0.180000 0.140000 0
0.200000 0.140000 0
0.220000 0.140000 0
0.240000 0.140000 0
0.260000 0.140000 0
0.280000 0.140000 0
0.300000 0.140000 0
0.320000 0.140000 0
0.340000 0.140000 0
0.360000 0.140000 0
0.380000 0.140000 0
0.400000 0.140000 0
0.420000 0.140000 0
0.440000 0.140000 0
0.460000 0.140000 0
0.480000 0.140000 0
0.500000 0.140000 0
0.520000 0.140000 0
0.540000 0.140000 0
0.560000 0.140000 0
0.580000 0.140000 0
0.600000 0.140000 0
0.620000 0.140000 0
0.640000 0.140000 0
0.660000 0.140000 0
0.680000 0.140000 0
0.700000 0.140000 0
0.720000 0.140000 0
0.740000 0.140000 0
0.760000 0.140000 0
0.780000 0.140000 0
0.800000 0.140000 0
0.820000 0.140000 0
0.840000 0.140000 0
0.860000 0.140000 0
0.880000 0.140000 0
0.900000 0.140000 0
0.920000 0.140000 0
0.940000 0.140000 0
0.960000 0.140000 0
0.980000 0.140000 0
1.000000 0.140000 0
0.000000 0.160000 0
0.020000 0.160000 0
0.040000 0.160000 0
0.060000 0.160000 0
0.080000 0.160000 0
0.100000 0.160000 0
0.120000 0.160000 0
0.140000 0.160000 0
0.160000 0.160000 0
0.180000 0.160000 0
0.200000 0.160000 0
0.220000 0.160000 0
0.240000 0.160000 0
0.260000 0.160000 0
0.280000 0.160000 0
0.300000 0.160000 0
0.320000 0.160000 0
0.340000 0.160000 0
0.360000 0.160000 0
0.380000 0.160000 0
0.400000 0.160000 0
0.420000 0.160000 0
0.440000 0.160000 0
0.460000 0.160000 0
0.480000 0.160000 0
0.500000 0.160000 0
0.520000 0.160000 0
0.540000 0.160000 0
0.560000 0.160000 0
0.580000 0.160000 0
0.600000 0.160000 0
0.620000 0.160000 0
0.640000 0.160000 0
0.660000 0.160000 0
0.680000 0.160000 0
0.700000 0.160000 0
0.720000 0.160000 0
0.740000 0.160000 0
0.760000 0.160000 0
0.780000 0.160000 0
0.800000 0.160000 0
0.820000 0.160000 0
0.840000 0.160000 0
0.860000 0.160000 0
0.880000 0.160000 0
0.900000 0.160000 0
0.920000 0.160000 0
0.940000 0.160000 0
0.960000 0.160000 0
0.980000 0.160000 0
1.000000 0.160000 0
0.000000 0.180000 0
0.020000 0.180000 0
0.040000 0.180000 0
0.060000 0.180000 0
0.080000 0.180000 0
0.100000 0.180000 0
0.120000 0.180000 0
0.140000 0.180000 0
0.160000 0.180000 0
0.180000 0.180000 0
0.200000 0.180000 0
0.220000 0.180000 0
0.240000 0.180000 0
0.260000 0.180000 0
0.280000 0.180000 0
0.300000 0.180000 0
0.320000 0.180000 0
0.340000 0.180000 0
0.360000 0.180000 0
0.380000 0.180000 0
0.400000 0.180000 0
0.420000 0.180000 0
0.440000 0.180000 0
0.460000 0.180000 0
0.480000 0.180000 0
0.500000 0.180000 0
0.520000 0.180000 0
0.540000 0.180000 0
0.560000 0.180000 0
0.580000 0.180000 0
0.600000 0.180000 0
0.620000 0.180000 0
[...]
POINT_DATA 2601 

VECTORS velocity float
0.000000 0.000000 0
0.000001 0.000000 0
0.000001 0.000000 0
0.000000 0.000000 0
-0.000000 0.000000 0
-0.000000 0.000000 0
-0.000000 0.000000 0
-0.000000 0.000000 0
-0.000000 0.000000 0
0.000000 0.000000 0
0.000000 0.000000 0
0.000000 0.000000 0
-0.000000 0.000000 0
-0.000000 0.000000 0
-0.000000 0.000000 0
-0.000000 0.000000 0
-0.000000 0.000000 0
0.000000 0.000000 0
0.000000 0.000000 0
0.000000 0.000000 0
-0.000000 0.000000 0
-0.000000 0.000000 0
-0.000000 0.000000 0
-0.000000 0.000000 0
-0.000000 0.000000 0
-0.000000 0.000000 0
0.000000 0.000000 0
0.000000 0.000000 0
0.000000 0.000000 0
-0.000000 0.000000 0
-0.000000 0.000000 0
-0.000000 0.000000 0
-0.000000 0.000000 0
-0.000000 0.000000 0
-0.000000 0.000000 0
-0.000000 0.000000 0
-0.000000 0.000000 0
0.000000 0.000000 0
0.000000 0.000000 0
0.000000 0.000000 0
0.000000 0.000000 0
0.000000 0.000000 0
0.000000 0.000000 0
0.000000 0.000000 0
0.000000 0.000000 0
0.000000 0.000000 0
0.000000 0.000000 0
0.000000 0.000000 0
0.000000 0.000000 0
0.000000 0.000000 0
0.000000 0.000000 0
0.000000 0.000001 0
0.000061 -0.000059 0
0.000082 -0.000023 0
-0.000013 0.000055 0
-0.000255 0.000144 0
-0.000645 0.000227 0
-0.001172 0.000301 0
-0.001816 0.000363 0
-0.002558 0.000412 0
-0.003378 0.000450 0
-0.004256 0.000476 0
-0.005174 0.000494 0
-0.006117 0.000503 0
-0.007068 0.000504 0
-0.008014 0.000499 0
-0.008943 0.000487 0
-0.009840 0.000468 0
-0.010694 0.000443 0
-0.011493 0.000411 0
-0.012223 0.000372 0
-0.012872 0.000327 0
-0.013429 0.000275 0
-0.013880 0.000216 0
-0.014216 0.000152 0
-0.014426 0.000082 0
-0.014502 0.000009 0
-0.014438 -0.000068 0
-0.014230 -0.000147 0
-0.013877 -0.000225 0
-0.013383 -0.000302 0
-0.012751 -0.000374 0
-0.011994 -0.000440 0
-0.011124 -0.000497 0
-0.010158 -0.000545 0
-0.009116 -0.000580 0
-0.008022 -0.000601 0
-0.006902 -0.000608 0
-0.005782 -0.000599 0
-0.004690 -0.000575 0
-0.003653 -0.000535 0
-0.002697 -0.000482 0
-0.001847 -0.000416 0
-0.001122 -0.000339 0
-0.000537 -0.000255 0
-0.000104 -0.000167 0
0.000174 -0.000079 0
0.000305 0.000002 0
0.000307 0.000067 0
0.000213 0.000100 0
0.000082 0.000082 0
0.000000 -0.000000 0
0.000000 0.000001 0
0.000025 -0.000081 0
-0.000075 0.000074 0
-0.000386 0.000337 0
-0.000945 0.000631 0
-0.001755 0.000916 0
-0.002799 0.001171 0
-0.004049 0.001387 0
-0.005471 0.001563 0
-0.007032 0.001698 0
-0.008698 0.001796 0
-0.010436 0.001860 0
-0.012217 0.001893 0
-0.014012 0.001897 0
-0.015797 0.001875 0
-0.017544 0.001826 0
-0.019230 0.001752 0
-0.020832 0.001653 0
-0.022325 0.001529 0
-0.023685 0.001380 0
-0.024891 0.001206 0
-0.025919 0.001008 0
-0.026748 0.000787 0
-0.027359 0.000546 0
-0.027734 0.000286 0
-0.027859 0.000012 0
-0.027724 -0.000272 0
-0.027324 -0.000561 0
-0.026657 -0.000848 0
-0.025730 -0.001126 0
-0.024554 -0.001388 0
-0.023147 -0.001628 0
-0.021534 -0.001837 0
-0.019746 -0.002008 0
-0.017821 -0.002135 0
-0.015798 -0.002214 0
-0.013725 -0.002241 0
-0.011649 -0.002212 0
-0.009619 -0.002129 0
-0.007684 -0.001992 0
-0.005889 -0.001806 0
-0.004276 -0.001576 0
-0.002882 -0.001309 0
-0.001733 -0.001017 0
-0.000847 -0.000712 0
-0.000228 -0.000410 0
0.000134 -0.000132 0
0.000270 0.000092 0
0.000232 0.000225 0
0.000103 0.000213 0
0.000000 -0.000000 0
0.000000 0.000000 0
-0.000056 0.000016 0
-0.000350 0.000387 0
-0.000949 0.000924 0
-0.001880 0.001512 0
-0.003141 0.002082 0
-0.004708 0.002596 0
-0.006545 0.003036 0
-0.008610 0.003396 0
-0.010860 0.003676 0
-0.013248 0.003880 0
-0.015733 0.004013 0
-0.018273 0.004079 0
-0.020829 0.004084 0
-0.023364 0.004030 0
-0.025844 0.003921 0
-0.028232 0.003756 0
-0.030495 0.003537 0
-0.032600 0.003264 0
-0.034514 0.002938 0
-0.036204 0.002560 0
-0.037640 0.002132 0
-0.038793 0.001656 0
-0.039636 0.001138 0
-0.040148 0.000583 0
-0.040308 -0.000001 0
-0.040105 -0.000603 0
-0.039532 -0.001214 0
-0.038589 -0.001819 0
-0.037284 -0.002405 0
-0.035634 -0.002957 0
-0.033665 -0.003459 0
-0.031411 -0.003898 0
-0.028914 -0.004258 0
-0.026224 -0.004528 0
-0.023397 -0.004697 0
-0.020494 -0.004757 0
-0.017581 -0.004705 0
-0.014723 -0.004540 0
-0.011985 -0.004266 0
-0.009429 -0.003889 0
-0.007112 -0.003423 0
-0.005081 -0.002883 0
-0.003374 -0.002290 0
-0.002013 -0.001672 0
-0.001007 -0.001060 0
-0.000343 -0.000496 0
0.000014 -0.000031 0
0.000124 0.000267 0
0.000077 0.000314 0
0.000000 -0.000000 0
0.000000 0.000000 0
-0.000154 0.000268 0
-0.000678 0.000966 0
-0.001605 0.001867 0
-0.002944 0.002823 0
-0.004678 0.003744 0
-0.006775 0.004575 0
-0.009191 0.005290 0
-0.011876 0.005877 0
-0.014778 0.006335 0
-0.017842 0.006669 0
-0.021018 0.006885 0
-0.024256 0.006990 0
-0.027508 0.006990 0
-0.030727 0.006890 0
-0.033870 0.006693 0
-0.036892 0.006403 0
-0.039751 0.006021 0
-0.042405 0.005547 0
-0.044813 0.004983 0
-0.046935 0.004332 0
-0.048735 0.003597 0
-0.050176 0.002784 0
-0.051226 0.001901 0
-0.051859 0.000958 0
-0.052052 -0.000030 0
-0.051791 -0.001049 0
-0.051068 -0.002078 0
-0.049885 -0.003096 0
-0.048252 -0.004080 0
-0.046191 -0.005007 0
-0.043732 -0.005851 0
-0.040917 -0.006588 0
-0.037797 -0.007195 0
-0.034433 -0.007653 0
-0.030892 -0.007944 0
-0.027249 -0.008056 0
-0.023582 -0.007984 0
-0.019970 -0.007725 0
-0.016492 -0.007286 0
-0.013224 -0.006679 0
-0.010235 -0.005924 0
-0.007582 -0.005048 0
-0.005312 -0.004085 0
-0.003456 -0.003079 0
-0.002024 -0.002080 0
-0.001008 -0.001153 0
-0.000372 -0.000374 0
-0.000058 0.000162 0
0.000026 0.000337 0
0.000000 -0.000000 0
0.000000 -0.000000 0
-0.000255 0.000692 0
-0.001022 0.001838 0
-0.002298 0.003191 0
-0.004063 0.004586 0
-0.006284 0.005914 0
-0.008916 0.007109 0
-0.011905 0.008137 0
-0.015193 0.008982 0
-0.018720 0.009641 0
-0.022426 0.010120 0
-0.026252 0.010427 0
-0.030142 0.010569 0
-0.034038 0.010555 0
-0.037890 0.010392 0
-0.041642 0.010085 0
-0.045246 0.009636 0
-0.048651 0.009049 0
-0.051808 0.008326 0
-0.054669 0.007469 0
-0.057188 0.006482 0
-0.059322 0.005372 0
-0.061030 0.004147 0
-0.062276 0.002821 0
-0.063028 0.001409 0
-0.063262 -0.000068 0
-0.062961 -0.001587 0
-0.062116 -0.003120 0
-0.060731 -0.004635 0
-0.058817 -0.006099 0
-0.056397 -0.007477 0
-0.053509 -0.008733 0
-0.050198 -0.009832 0
-0.046523 -0.010742 0
-0.042552 -0.011433 0
-0.038363 -0.011880 0
-0.034041 -0.012068 0
-0.029675 -0.011985 0
-0.025356 -0.011630 0
-0.021175 -0.011011 0
-0.017221 -0.010147 0
-0.013572 -0.009065 0
-0.010298 -0.007805 0
-0.007454 -0.006416 0
-0.005080 -0.004960 0
-0.003192 -0.003508 0
-0.001786 -0.002148 0
-0.000833 -0.000981 0
-0.000277 -0.000131 0
-0.000036 0.000256 0
0.000000 -0.000000 0
0.000000 -0.000000 0
-0.000354 0.001290 0
-0.001367 0.003010 0
-0.002997 0.004909 0
-0.005194 0.006811 0
-0.007906 0.008597 0
-0.011072 0.010196 0
-0.014626 0.011566 0
-0.018503 0.012692 0
-0.022635 0.013568 0
-0.026956 0.014201 0
-0.031400 0.014600 0
-0.035905 0.014776 0
-0.040408 0.014737 0
-0.044850 0.014493 0
-0.049174 0.014050 0
-0.053321 0.013412 0
-0.057236 0.012582 0
-0.060863 0.011565 0
-0.064150 0.010364 0
-0.067045 0.008985 0
-0.069499 0.007439 0
-0.071466 0.005737 0
-0.072908 0.003898 0
-0.073788 0.001944 0
-0.074080 -0.000098 0
-0.073764 -0.002194 0
-0.072832 -0.004307 0
-0.071284 -0.006396 0
-0.069133 -0.008414 0
-0.066406 -0.010315 0
-0.063140 -0.012050 0
-0.059387 -0.013574 0
-0.055210 -0.014841 0
-0.050683 -0.015812 0
-0.045893 -0.016455 0
-0.040932 -0.016745 0
-0.035900 -0.016669 0
-0.030899 -0.016224 0
-0.026032 -0.015421 0
-0.021398 -0.014283 0
-0.017087 -0.012847 0
-0.013182 -0.011165 0
-0.009746 -0.009303 0
-0.006829 -0.007341 0
-0.004456 -0.005374 0
-0.002631 -0.003512 0
-0.001333 -0.001883 0
-0.000514 -0.000635 0
-0.000101 0.000060 0
0.000000 -0.000000 0
0.000000 -0.000000 0
-0.000449 0.002058 0
-0.001703 0.004481 0
-0.003683 0.007020 0
-0.006311 0.009497 0
-0.009510 0.011791 0
-0.013203 0.013829 0
-0.017314 0.015568 0
-0.021765 0.016991 0
-0.026484 0.018094 0
-0.031396 0.018885 0
-0.036432 0.019376 0
-0.041523 0.019577 0
-0.046603 0.019501 0
-0.051606 0.019158 0
-0.056471 0.018555 0
-0.061133 0.017698 0
-0.065533 0.016592 0
-0.069611 0.015240 0
-0.073309 0.013650 0
-0.076570 0.011831 0
-0.079341 0.009794 0
-0.081573 0.007557 0
-0.083222 0.005143 0
-0.084250 0.002581 0
-0.084625 -0.000092 0
-0.084327 -0.002836 0
-0.083344 -0.005601 0
-0.081676 -0.008334 0
-0.079336 -0.010977 0
-0.076348 -0.013470 0
-0.072753 -0.015752 0
-0.068604 -0.017763 0
-0.063968 -0.019446 0
-0.058924 -0.020749 0
-0.053565 -0.021632 0
-0.047991 -0.022061 0
-0.042311 -0.022017 0
-0.036637 -0.021497 0
-0.031084 -0.020513 0
-0.025762 -0.019092 0
-0.020775 -0.017282 0
-0.016216 -0.015147 0
-0.012163 -0.012769 0
-0.008675 -0.010250 0
-0.005790 -0.007705 0
-0.003521 -0.005271 0
-0.001856 -0.003099 0
-0.000758 -0.001363 0
-0.000166 -0.000257 0
0.000000 -0.000000 0
0.000000 -0.000000 0
-0.000539 0.002993 0
-0.002027 0.006245 0
-0.004348 0.009517 0
-0.007397 0.012637 0
-0.011073 0.015489 0
-0.015283 0.017999 0
-0.019936 0.020129 0
-0.024947 0.021862 0
-0.030234 0.023199 0
-0.035717 0.024150 0
-0.041323 0.024727 0
-0.046976 0.024946 0
-0.052608 0.024821 0
-0.058150 0.024361 0
-0.063533 0.023577 0
-0.068692 0.022475 0
-0.073563 0.021060 0
-0.078081 0.019340 0
-0.082184 0.017322 0
-0.085812 0.015018 0
-0.088908 0.012442 0
-0.091419 0.009619 0
-0.093296 0.006575 0
-0.094499 0.003347 0
-0.094992 -0.000020 0
-0.094751 -0.003475 0
-0.093761 -0.006958 0
-0.092019 -0.010404 0
-0.089536 -0.013742 0
-0.086336 -0.016897 0
-0.082458 -0.019795 0
-0.077956 -0.022359 0
-0.072898 -0.024521 0
-0.067368 -0.026215 0
-0.061463 -0.027388 0
-0.055290 -0.027999 0
-0.048968 -0.028023 0
-0.042618 -0.027451 0
-0.036367 -0.026296 0
-0.030339 -0.024591 0
-0.024650 -0.022393 0
-0.019408 -0.019777 0
-0.014706 -0.016844 0
-0.010615 -0.013714 0
-0.007187 -0.010528 0
-0.004447 -0.007446 0
-0.002396 -0.004646 0
-0.001007 -0.002325 0
-0.000232 -0.000698 0
0.000000 -0.000000 0
0.000000 0.000000 0
-0.000625 0.004086 0
-0.002336 0.008291 0
-0.004986 0.012390 0
-0.008441 0.016221 0
-0.012580 0.019677 0
-0.017291 0.022692 0
-0.022470 0.025232 0
-0.028023 0.027289 0
-0.033859 0.028865 0
-0.039894 0.029974 0
-0.046048 0.030634 0
-0.052244 0.030863 0
-0.058408 0.030674 0
-0.064468 0.030083 0
-0.070355 0.029098 0
-0.075998 0.027728 0
-0.081331 0.025980 0
-0.086286 0.023861 0
-0.090797 0.021381 0
-0.094801 0.018555 0
-0.098237 0.015401 0
-0.101049 0.011945 0
-0.103184 0.008223 0
-0.104597 0.004277 0
-0.105248 0.000160 0
-0.105110 -0.004067 0
-0.104162 -0.008332 0
-0.102398 -0.012558 0
-0.099824 -0.016660 0
-0.096462 -0.020549 0
-0.092347 -0.024133 0
-0.087533 -0.027323 0
-0.082089 -0.030033 0
-0.076100 -0.032184 0
-0.069668 -0.033709 0
-0.062905 -0.034556 0
-0.055938 -0.034689 0
-0.048901 -0.034098 0
-0.041931 -0.032792 0
-0.035168 -0.030809 0
-0.028743 -0.028212 0
-0.022781 -0.025091 0
-0.017389 -0.021563 0
-0.012657 -0.017769 0
-0.008652 -0.013873 0
-0.005413 -0.010061 0
-0.002954 -0.006539 0
-0.001262 -0.003528 0
-0.000297 -0.001265 0
0.000000 -0.000000 0
0.000000 0.000000 0
-0.000707 0.005330 0
-0.002630 0.010606 0
-0.005594 0.015622 0
-0.009438 0.020230 0
-0.014020 0.024338 0
-0.019212 0.027889 0
-0.024898 0.030861 0
-0.030972 0.033251 0
-0.037337 0.035070 0
-0.043902 0.036339 0
-0.050584 0.037077 0
-0.057303 0.037306 0
-0.063981 0.037045 0
-0.070546 0.036308 0
-0.076923 0.035107 0
-0.083043 0.033451 0
-0.088834 0.031348 0
-0.094228 0.028806 0
-0.099155 0.025837 0
-0.103551 0.022458 0
-0.107349 0.018691 0
-0.110490 0.014566 0
-0.112918 0.010122 0
-0.114583 0.005411 0
-0.115439 0.000493 0
-0.115455 -0.004561 0
-0.114603 -0.009670 0
-0.112873 -0.014742 0
-0.110264 -0.019678 0
-0.106794 -0.024374 0
-0.102493 -0.028723 0
-0.097412 -0.032617 0
-0.091618 -0.035953 0
-0.085197 -0.038637 0
-0.078254 -0.040584 0
-0.070906 -0.041729 0
-0.063290 -0.042027 0
-0.055548 -0.041458 0
-0.047833 -0.040029 0
-0.040299 -0.037780 0
-0.033097 -0.034780 0
-0.026368 -0.031131 0
-0.020241 -0.026968 0
-0.014824 -0.022452 0
-0.010201 -0.017773 0
-0.006429 -0.013143 0
-0.003538 -0.008797 0
-0.001525 -0.004982 0
-0.000364 -0.001960 0
0.000000 -0.000000 0
0.000000 0.000000 0
-0.000783 0.006716 0
-0.002907 0.013177 0
-0.006167 0.019197 0
-0.010380 0.024647 0
-0.015384 0.029451 0
-0.021034 0.033570 0
-0.027203 0.036992 0
-0.033775 0.039727 0
-0.040645 0.041795 0
-0.047719 0.043222 0
-0.054908 0.044035 0
-0.062130 0.044260 0
-0.069306 0.043917 0
-0.076360 0.043025 0
-0.083218 0.041596 0
-0.089808 0.039639 0
-0.096058 0.037165 0
-0.101896 0.034182 0
-0.107252 0.030704 0
-0.112056 0.026748 0
-0.116243 0.022341 0
-0.119746 0.017514 0
-0.122507 0.012315 0
-0.124469 0.006798 0
-0.125584 0.001032 0
-0.125809 -0.004903 0
-0.125114 -0.010914 0
-0.123479 -0.016897 0
-0.120897 -0.022739 0
-0.117377 -0.028320 0
-0.112945 -0.033515 0
-0.107646 -0.038198 0
-0.101543 -0.042248 0
-0.094721 -0.045549 0
-0.087286 -0.048000 0
-0.079361 -0.049520 0
-0.071088 -0.050048 0
-0.062623 -0.049554 0
-0.054133 -0.048041 0
-0.045790 -0.045545 0
-0.037762 -0.042143 0
-0.030216 -0.037947 0
-0.023300 -0.033108 0
-0.017145 -0.027809 0
-0.011856 -0.022268 0
-0.007512 -0.016724 0
-0.004156 -0.011443 0
-0.001803 -0.006702 0
-0.000433 -0.002790 0
0.000000 -0.000000 0
0.000000 0.000000 0
-0.000855 0.008237 0
-0.003166 0.015989 0
-0.006703 0.023094 0
-0.011262 0.029448 0
-0.016662 0.034993 0
-0.022746 0.039709 0
-0.029371 0.043601 0
-0.036414 0.046693 0
-0.043764 0.049014 0
-0.051321 0.050601 0
-0.058994 0.051488 0
-0.066699 0.051704 0
-0.074354 0.051275 0
-0.081884 0.050221 0
-0.089213 0.048556 0
-0.096267 0.046290 0
-0.102975 0.043435 0
-0.109264 0.039999 0
-0.115061 0.035998 0
-0.120295 0.031449 0
-0.124897 0.026381 0
-0.128799 0.020830 0
-0.131935 0.014845 0
-0.134244 0.008488 0
-0.135672 0.001833 0
-0.136168 -0.005031 0
-0.135694 -0.012000 0
-0.134221 -0.018959 0
-0.131733 -0.025780 0
-0.128230 -0.032326 0
-0.123729 -0.038454 0
-0.118267 -0.044020 0
-0.111902 -0.048878 0
-0.104716 -0.052894 0
-0.096814 -0.055944 0
-0.088322 -0.057927 0
-0.079391 -0.058764 0
-0.070186 -0.058412 0
-0.060891 -0.056863 0
-0.051696 -0.054151 0
-0.042793 -0.050354 0
-0.034371 -0.045594 0
-0.026606 -0.040039 0
-0.019654 -0.033895 0
-0.013646 -0.027405 0
-0.008681 -0.020843 0
-0.004823 -0.014506 0
-0.002101 -0.008705 0
-0.000507 -0.003763 0
0.000000 -0.000000 0
0.000000 -0.000000 0
-0.000921 0.009882 0
-0.003404 0.019025 0
-0.007198 0.027293 0
-0.012078 0.034607 0
-0.017848 0.040935 0
-0.024334 0.046278 0
-0.031385 0.050660 0
-0.038870 0.054120 0
-0.046671 0.056702 0
-0.054684 0.058452 0
-0.062816 0.059413 0
-0.070979 0.059620 0
-0.079094 0.059102 0
-0.087083 0.057884 0
-0.094870 0.055979 0
-0.102383 0.053402 0
-0.109548 0.050161 0
-0.116292 0.046268 0
-0.122543 0.041736 0
-0.128227 0.036585 0
-0.133272 0.030844 0
-0.137606 0.024552 0
-0.141161 0.017760 0
-0.143868 0.010535 0
-0.145665 0.002955 0
-0.146496 -0.004880 0
-0.146312 -0.012861 0
-0.145073 -0.020858 0
-0.142752 -0.028730 0
-0.139339 -0.036324 0
-0.134838 -0.043478 0
-0.129278 -0.050025 0
-0.122709 -0.055798 0
-0.115205 -0.060637 0
-0.106870 -0.064394 0
-0.097832 -0.066943 0
-0.088245 -0.068184 0
-0.078289 -0.068054 0
-0.068162 -0.066532 0
-0.058073 -0.063644 0
-0.048242 -0.059468 0
-0.038884 -0.054134 0
-0.030204 -0.047824 0
-0.022389 -0.040769 0
-0.015598 -0.033241 0
-0.009956 -0.025547 0
-0.005550 -0.018022 0
-0.002426 -0.011017 0
-0.000588 -0.004891 0
0.000000 -0.000000 0
0.000000 -0.000000 0
-0.000981 0.011641 0
-0.003622 0.022266 0
-0.007650 0.031768 0
-0.012824 0.040098 0
-0.018931 0.047248 0
-0.025787 0.053246 0
-0.033231 0.058137 0
-0.041124 0.061978 0
-0.049343 0.064829 0
-0.057782 0.066746 0
-0.066343 0.067783 0
-0.074939 0.067983 0
-0.083490 0.067379 0
-0.091918 0.065997 0
-0.100149 0.063856 0
-0.108109 0.060968 0
-0.115727 0.057344 0
-0.122929 0.052994 0
-0.129642 0.047932 0
-0.135791 0.042178 0
-0.141304 0.035760 0
-0.146104 0.028719 0
-0.150117 0.021107 0
-0.153271 0.012992 0
-0.155496 0.004461 0
-0.156726 -0.004384 0
-0.156902 -0.013424 0
-0.155973 -0.022519 0
-0.153898 -0.031514 0
-0.150654 -0.040240 0
-0.146234 -0.048515 0
-0.140651 -0.056149 0
-0.133945 -0.062951 0
-0.126183 -0.068733 0
-0.117461 -0.073318 0
-0.107907 -0.076551 0
-0.097681 -0.078306 0
-0.086971 -0.078496 0
-0.075990 -0.077079 0
-0.064972 -0.074070 0
-0.054161 -0.069543 0
-0.043804 -0.063632 0
-0.034139 -0.056533 0
-0.025389 -0.048501 0
-0.017744 -0.039839 0
-0.011361 -0.030892 0
-0.006352 -0.022036 0
-0.002785 -0.013667 0
-0.000678 -0.006189 0
0.000000 -0.000000 0
0.000000 -0.000000 0
-0.001035 0.013503 0
-0.003816 0.025694 0
-0.008054 0.036495 0
-0.013492 0.045889 0
-0.019903 0.053899 0
-0.027094 0.060578 0
-0.034894 0.065997 0
-0.043158 0.070232 0
-0.051759 0.073360 0
-0.060587 0.075452 0
-0.069544 0.076570 0
-0.078543 0.076767 0
-0.087502 0.076081 0
-0.096344 0.074542 0
-0.104998 0.072171 0
-0.113391 0.068980 0
-0.121451 0.064980 0
-0.129107 0.060182 0
-0.136285 0.054598 0
-0.142911 0.048247 0
-0.148910 0.041156 0
-0.154203 0.033365 0
-0.158712 0.024928 0
-0.162358 0.015914 0
-0.165066 0.006411 0
-0.166758 -0.003475 0
-0.167365 -0.013615 0
-0.166823 -0.023862 0
-0.165078 -0.034048 0
-0.162091 -0.043989 0
-0.157839 -0.053482 0
-0.152320 -0.062314 0
-0.145559 -0.070267 0
-0.137611 -0.077121 0
-0.128565 -0.082670 0
-0.118543 -0.086722 0
-0.107707 -0.089120 0
-0.096253 -0.089745 0
-0.084409 -0.088530 0
-0.072432 -0.085473 0
-0.060594 -0.080636 0
-0.049175 -0.074155 0
-0.038454 -0.066240 0
-0.028690 -0.057165 0
-0.020114 -0.047269 0
-0.012917 -0.036939 0
-0.007244 -0.026598 0
-0.003186 -0.016692 0
-0.000778 -0.007676 0
0.000000 -0.000000 0
0.000000 -0.000000 0
-0.001081 0.015457 0
-0.003986 0.029286 0
-0.008407 0.041444 0
-0.014076 0.051947 0
-0.020756 0.060850 0
-0.028241 0.068237 0
-0.036357 0.074201 0
-0.044951 0.078843 0
-0.053894 0.082258 0
-0.063072 0.084532 0
-0.072388 0.085739 0
-0.081752 0.085940 0
-0.091085 0.085180 0
-0.100312 0.083493 0
-0.109362 0.080902 0
-0.118164 0.077421 0
-0.126650 0.073060 0
-0.134748 0.067828 0
-0.142387 0.061737 0
-0.149493 0.054803 0
-0.155988 0.047052 0
-0.161793 0.038521 0
-0.166827 0.029263 0
-0.171005 0.019346 0
-0.174243 0.008861 0
-0.176456 -0.002085 0
-0.177563 -0.013359 0
-0.177487 -0.024805 0
-0.176159 -0.036245 0
-0.173521 -0.047479 0
-0.169533 -0.058286 0
-0.164176 -0.068429 0
-0.157457 -0.077659 0
-0.149414 -0.085727 0
-0.140123 -0.092386 0
-0.129700 -0.097409 0
-0.118302 -0.100596 0
-0.106133 -0.101793 0
-0.093432 -0.100900 0
-0.080478 -0.097886 0
-0.067574 -0.092799 0
-0.055037 -0.085771 0
-0.043187 -0.077019 0
-0.032328 -0.066842 0
-0.022737 -0.055611 0
-0.014647 -0.043761 0
-0.008240 -0.031767 0
-0.003636 -0.020134 0
-0.000891 -0.009375 0
0.000000 -0.000000 0
0.000000 -0.000000 0
-0.001121 0.017489 0
-0.004128 0.033020 0
-0.008706 0.046585 0
-0.014571 0.058237 0
-0.021480 0.068064 0
-0.029218 0.076180 0
-0.037606 0.082707 0
-0.046486 0.087769 0
-0.055725 0.091481 0
-0.065209 0.093946 0
-0.074839 0.095250 0
-0.084527 0.095464 0
-0.094194 0.094641 0
-0.103768 0.092819 0
-0.113179 0.090022 0
-0.122360 0.086268 0
-0.131245 0.081564 0
-0.139764 0.075920 0
-0.147849 0.069343 0
-0.155426 0.061848 0
-0.162418 0.053457 0
-0.168744 0.044204 0
-0.174321 0.034140 0
-0.179059 0.023330 0
-0.182868 0.011862 0
-0.185655 -0.000154 0
-0.187326 -0.012584 0
-0.187792 -0.025266 0
-0.186966 -0.038014 0
-0.184774 -0.050614 0
-0.181156 -0.062826 0
-0.176070 -0.074390 0
-0.169503 -0.085029 0
-0.161473 -0.094455 0
-0.152039 -0.102384 0
-0.141302 -0.108543 0
-0.129415 -0.112687 0
-0.116579 -0.114615 0
-0.103048 -0.114185 0
-0.089117 -0.111331 0
-0.075121 -0.106077 0
-0.061417 -0.098542 0
-0.048369 -0.088948 0
-0.036335 -0.077615 0
-0.025641 -0.064950 0
-0.016573 -0.051436 0
-0.009353 -0.037609 0
-0.004141 -0.024040 0
-0.001020 -0.011312 0
0.000000 -0.000000 0
0.000000 0.000000 0
-0.001152 0.019585 0
-0.004243 0.036871 0
-0.008946 0.051887 0
-0.014971 0.064721 0
-0.022067 0.075498 0
-0.030014 0.084363 0
-0.038626 0.091468 0
-0.047743 0.096962 0
-0.057229 0.100981 0
-0.066970 0.103646 0
-0.076865 0.105057 0
-0.086828 0.105295 0
-0.096782 0.104421 0
-0.106656 0.102478 0