# vtk DataFile Version 2.0
generated by CFD-lab course output (written by Tobias Neckel) 
ASCII

DATASET STRUCTURED_GRID
DIMENSIONS  51 51 1 
POINTS 2601 float

0.000000 0.000000 0
0.020000 0.000000 0
0.040000 0.000000 0
0.060000 0.000000 0
0.080000 0.000000 0
0.100000 0.000000 0
0.120000 0.000000 0
0.140000 0.000000 0
0.160000 0.000000 0
0.180000 0.000000 0
0.200000 0.000000 0
0.220000 0.000000 0
0.240000 0.000000 0
0.260000 0.000000 0
0.280000 0.000000 0
0.300000 0.000000 0
0.320000 0.000000 0
0.340000 0.000000 0
0.360000 0.000000 0
0.380000 0.000000 0
0.400000 0.000000 0
0.420000 0.000000 0
0.440000 0.000000 0
0.460000 0.000000 0
0.480000 0.000000 0
0.500000 0.000000 0
0.520000 0.000000 0
0.540000 0.000000 0
0.560000 0.000000 0
0.580000 0.000000 0
0.600000 0.000000 0
0.620000 0.000000 0
0.640000 0.000000 0
0.660000 0.000000 0
0.680000 0.000000 0
0.700000 0.000000 0
0.720000 0.000000 0
0.740000 0.000000 0
0.760000 0.000000 0
0.780000 0.000000 0
0.800000 0.000000 0
0.820000 0.000000 0
0.840000 0.000000 0
0.860000 0.000000 0
0.880000 0.000000 0
0.900000 0.000000 0
0.920000 0.000000 0
0.940000 0.000000 0
0.960000 0.000000 0
0.980000 0.000000 0
1.000000 0.000000 0
0.000000 0.020000 0
0.020000 0.020000 0
0.040000 0.020000 0
0.060000 0.020000 0
0.080000 0.020000 0
0.100000 0.020000 0
0.120000 0.020000 0
0.140000 0.020000 0
0.160000 0.020000 0
0.180000 0.020000 0
0.200000 0.020000 0
0.220000 0.020000 0
0.240000 0.020000 0
0.260000 0.020000 0
0.280000 0.020000 0
0.300000 0.020000 0
0.320000 0.020000 0
0.340000 0.020000 0
0.360000 0.020000 0
0.380000 0.020000 0
0.400000 0.020000 0
0.420000 0.020000 0
0.440000 0.020000 0
0.460000 0.020000 0
0.480000 0.020000 0
0.500000 0.020000 0
0.520000 0.020000 0
0.540000 0.020000 0
0.560000 0.020000 0
0.580000 0.020000 0
0.600000 0.020000 0
0.620000 0.020000 0
0.640000 0.020000 0
0.660000 0.020000 0
0.680000 0.020000 0
0.700000 0.020000 0
0.720000 0.020000 0
0.740000 0.020000 0
0.760000 0.020000 0
0.780000 0.020000 0
0.800000 0.020000 0
0.820000 0.020000 0
0.840000 0.020000 0
0.860000 0.020000 0
0.880000 0.020000 0
0.900000 0.020000 0
0.920000 0.020000 0
0.940000 0.020000 0
0.960000 0.020000 0
0.980000 0.020000 0
1.000000 0.020000 0
0.000000 0.040000 0
0.020000 0.040000 0
0.040000 0.040000 0
0.060000 0.040000 0
0.080000 0.040000 0
0.100000 0.040000 0
0.120000 0.040000 0
0.140000 0.040000 0
0.160000 0.040000 0
0.180000 0.040000 0
0.200000 0.040000 0
0.220000 0.040000 0
0.240000 0.040000 0
0.260000 0.040000 0
0.280000 0.040000 0
0.300000 0.040000 0
0.320000 0.040000 0
0.340000 0.040000 0
0.360000 0.040000 0
0.380000 0.040000 0
0.400000 0.040000 0
0.420000 0.040000 0
0.440000 0.040000 0
0.460000 0.040000 0
0.480000 0.040000 0
0.500000 0.040000 0
0.520000 0.040000 0
0.540000 0.040000 0
0.560000 0.040000 0
0.580000 0.040000 0
0.600000 0.040000 0
0.620000 0.040000 0
0.640000 0.040000 0
0.660000 0.040000 0
0.680000 0.040000 0
0.700000 0.040000 0
0.720000 0.040000 0
0.740000 0.040000 0
0.760000 0.040000 0
0.780000 0.040000 0
0.800000 0.040000 0
0.820000 0.040000 0
0.840000 0.040000 0
0.860000 0.040000 0
0.880000 0.040000 0
0.900000 0.040000 0
0.920000 0.040000 0
0.940000 0.040000 0
0.960000 0.040000 0
0.980000 0.040000 0
1.000000 0.040000 0
0.000000 0.060000 0
0.020000 0.060000 0
0.040000 0.060000 0
0.060000 0.060000 0
0.080000 0.060000 0
0.100000 0.060000 0
0.120000 0.060000 0
0.140000 0.060000 0
0.160000 0.060000 0
0.180000 0.060000 0
0.200000 0.060000 0
0.220000 0.060000 0
0.240000 0.060000 0
0.260000 0.060000 0
0.280000 0.060000 0
0.300000 0.060000 0
0.320000 0.060000 0
0.340000 0.060000 0
0.360000 0.060000 0
0.380000 0.060000 0
0.400000 0.060000 0
0.420000 0.060000 0
0.440000 0.060000 0
0.460000 0.060000 0
0.480000 0.060000 0
0.500000 0.060000 0
0.520000 0.060000 0
0.540000 0.060000 0
0.560000 0.060000 0
0.580000 0.060000 0
0.600000 0.060000 0
0.620000 0.060000 0
0.640000 0.060000 0
0.660000 0.060000 0
0.680000 0.060000 0
0.700000 0.060000 0
0.720000 0.060000 0
0.740000 0.060000 0
0.760000 0.060000 0
0.780000 0.060000 0
0.800000 0.060000 0
0.820000 0.060000 0
0.840000 0.060000 0
0.860000 0.060000 0
0.880000 0.060000 0
0.900000 0.060000 0
0.920000 0.060000 0
0.940000 0.060000 0
0.960000 0.060000 0
0.980000 0.060000 0
1.000000 0.060000 0
0.000000 0.080000 0
0.020000 0.080000 0
0.040000 0.080000 0
0.060000 0.080000 0
0.080000 0.080000 0
0.100000 0.080000 0
0.120000 0.080000 0
0.140000 0.080000 0
0.160000 0.080000 0
0.180000 0.080000 0
0.200000 0.080000 0
0.220000 0.080000 0
0.240000 0.080000 0
0.260000 0.080000 0
0.280000 0.080000 0
0.300000 0.080000 0
0.320000 0.080000 0
0.340000 0.080000 0
0.360000 0.080000 0
0.380000 0.080000 0
0.400000 0.080000 0
0.420000 0.080000 0
0.440000 0.080000 0
0.460000 0.080000 0
0.480000 0.080000 0
0.500000 0.080000 0
0.520000 0.080000 0
0.540000 0.080000 0
0.560000 0.080000 0
0.580000 0.080000 0
0.600000 0.080000 0
0.620000 0.080000 0
0.640000 0.080000 0
0.660000 0.080000 0
0.680000 0.080000 0
0.700000 0.080000 0
0.720000 0.080000 0
0.740000 0.080000 0
0.760000 0.080000 0
0.780000 0.080000 0
0.800000 0.080000 0
0.820000 0.080000 0
0.840000 0.080000 0
0.860000 0.080000 0
0.880000 0.080000 0
0.900000 0.080000 0
0.920000 0.080000 0
0.940000 0.080000 0
0.960000 0.080000 0
0.980000 0.080000 0
1.000000 0.080000 0
0.000000 0.100000 0
0.020000 0.100000 0
0.040000 0.100000 0
0.060000 0.100000 0
0.080000 0.100000 0
0.100000 0.100000 0
0.120000 0.100000 0
0.140000 0.100000 0
0.160000 0.100000 0
0.180000 0.100000 0
0.200000 0.100000 0
0.220000 0.100000 0
0.240000 0.100000 0
0.260000 0.100000 0
0.280000 0.100000 0
0.300000 0.100000 0
0.320000 0.100000 0
0.340000 0.100000 0
0.360000 0.100000 0
0.380000 0.100000 0
0.400000 0.100000 0
0.420000 0.100000 0
0.440000 0.100000 0
0.460000 0.100000 0
0.480000 0.100000 0
0.500000 0.100000 0
0.520000 0.100000 0
0.540000 0.100000 0
0.560000 0.100000 0
0.580000 0.100000 0
0.600000 0.100000 0
0.620000 0.100000 0
0.640000 0.100000 0
0.660000 0.100000 0
0.680000 0.100000 0
0.700000 0.100000 0
0.720000 0.100000 0
0.740000 0.100000 0
0.760000 0.100000 0
0.780000 0.100000 0
0.800000 0.100000 0
0.820000 0.100000 0
0.840000 0.100000 0
0.860000 0.100000 0
0.880000 0.100000 0
0.900000 0.100000 0
0.920000 0.100000 0
0.940000 0.100000 0
0.960000 0.100000 0
0.980000 0.100000 0
1.000000 0.100000 0
0.000000 0.120000 0
0.020000 0.120000 0
0.040000 0.120000 0
0.060000 0.120000 0
0.080000 0.120000 0
0.100000 0.120000 0
0.120000 0.120000 0
0.140000 0.120000 0
0.160000 0.120000 0
0.180000 0.120000 0
0.200000 0.120000 0
0.220000 0.120000 0
0.240000 0.120000 0
0.260000 0.120000 0
0.280000 0.120000 0
0.300000 0.120000 0
0.320000 0.120000 0
0.340000 0.120000 0
0.360000 0.120000 0
0.380000 0.120000 0
0.400000 0.120000 0
0.420000 0.120000 0
0.440000 0.120000 0
0.460000 0.120000 0
0.480000 0.120000 0
0.500000 0.120000 0
0.520000 0.120000 0
0.540000 0.120000 0
0.560000 0.120000 0
0.580000 0.120000 0
0.600000 0.120000 0
0.620000 0.120000 0
0.640000 0.120000 0
0.660000 0.120000 0
0.680000 0.120000 0
0.700000 0.120000 0
0.720000 0.120000 0
0.740000 0.120000 0
0.760000 0.120000 0
0.780000 0.120000 0
0.800000 0.120000 0
0.820000 0.120000 0
0.840000 0.120000 0
0.860000 0.120000 0
0.880000 0.120000 0
0.900000 0.120000 0
0.920000 0.120000 0
0.940000 0.120000 0
0.960000 0.120000 0
0.980000 0.120000 0
1.000000 0.120000 0
0.000000 0.140000 0
0.020000 0.140000 0
0.040000 0.140000 0
0.060000 0.140000 0
0.080000 0.140000 0
0.100000 0.140000 0
0.120000 0.140000 0
0.140000 0.140000 0
0.160000 0.140000 0
0.180000 0.140000 0
0.200000 0.140000 0
0.220000 0.140000 0
0.240000 0.140000 0
0.260000 0.140000 0
0.280000 0.140000 0
0.300000 0.140000 0
0.320000 0.140000 0
0.340000 0.140000 0
0.360000 0.140000 0
0.380000 0.140000 0
0.400000 0.140000 0
0.420000 0.140000 0
0.440000 0.140000 0
0.460000 0.140000 0
0.480000 0.140000 0
0.500000 0.140000 0
0.520000 0.140000 0
0.540000 0.140000 0
0.560000 0.140000 0
0.580000 0.140000 0
0.600000 0.140000 0
0.620000 0.140000 0
0.640000 0.140000 0
0.660000 0.140000 0
0.680000 0.140000 0
0.700000 0.140000 0
0.720000 0.140000 0
0.740000 0.140000 0
0.760000 0.140000 0
0.780000 0.140000 0
0.800000 0.140000 0
0.820000 0.140000 0
0.840000 0.140000 0
0.860000 0.140000 0
0.880000 0.140000 0
0.900000 0.140000 0
0.920000 0.140000 0
0.940000 0.140000 0
0.960000 0.140000 0
0.980000 0.140000 0
1.000000 0.140000 0
0.000000 0.160000 0
0.020000 0.160000 0
0.040000 0.160000 0
0.060000 0.160000 0
0.080000 0.160000 0
0.100000 0.160000 0
0.120000 0.160000 0
0.140000 0.160000 0
0.160000 0.160000 0
0.180000 0.160000 0
0.200000 0.160000 0
0.220000 0.160000 0
0.240000 0.160000 0
0.260000 0.160000 0
0.280000 0.160000 0
0.300000 0.160000 0
0.320000 0.160000 0
0.340000 0.160000 0
0.360000 0.160000 0
0.380000 0.160000 0
0.400000 0.160000 0
0.420000 0.160000 0
0.440000 0.160000 0
0.460000 0.160000 0
0.480000 0.160000 0
0.500000 0.160000 0
0.520000 0.160000 0
0.540000 0.160000 0
0.560000 0.160000 0
0.580000 0.160000 0
0.600000 0.160000 0
0.620000 0.160000 0
0.640000 0.160000 0
0.660000 0.160000 0
0.680000 0.160000 0
0.700000 0.160000 0
0.720000 0.160000 0
0.740000 0.160000 0
0.760000 0.160000 0
0.780000 0.160000 0
0.800000 0.160000 0
0.820000 0.160000 0
0.840000 0.160000 0
0.860000 0.160000 0
0.880000 0.160000 0
0.900000 0.160000 0
0.920000 0.160000 0
0.940000 0.160000 0
0.960000 0.160000 0
0.980000 0.160000 0
1.000000 0.160000 0
0.000000 0.180000 0
0.020000 0.180000 0
0.040000 0.180000 0
0.060000 0.180000 0
0.080000 0.180000 0
0.100000 0.180000 0
0.120000 0.180000 0
0.140000 0.180000 0
0.160000 0.180000 0
0.180000 0.180000 0
0.200000 0.180000 0
0.220000 0.180000 0
0.240000 0.180000 0
0.260000 0.180000 0
0.280000 0.180000 0
0.300000 0.180000 0
0.320000 0.180000 0
0.340000 0.180000 0
0.360000 0.180000 0
0.380000 0.180000 0
0.400000 0.180000 0
0.420000 0.180000 0
0.440000 0.180000 0
0.460000 0.180000 0
0.480000 0.180000 0
0.500000 0.180000 0
0.520000 0.180000 0
0.540000 0.180000 0
0.560000 0.180000 0
0.580000 0.180000 0
0.600000 0.180000 0
0.620000 0.180000 0
[...]
POINT_DATA 2601 

VECTORS velocity float
0.000000 0.000000 0
0.000001 0.000000 0
0.000001 0.000000 0
0.000000 0.000000 0
-0.000000 0.000000 0
-0.000001 0.000000 0
-0.000000 0.000000 0
-0.000000 0.000000 0
0.000000 0.000000 0
0.000000 0.000000 0
0.000000 0.000000 0
-0.000000 0.000000 0
-0.000000 0.000000 0
-0.000000 0.000000 0
-0.000000 0.000000 0
-0.000000 0.000000 0
0.000000 0.000000 0
-0.000000 0.000000 0
-0.000000 0.000000 0
-0.000000 0.000000 0
-0.000000 0.000000 0
-0.000000 0.000000 0
-0.000000 0.000000 0
-0.000000 0.000000 0
-0.000000 0.000000 0
-0.000000 0.000000 0
-0.000000 0.000000 0
-0.000000 0.000000 0
-0.000000 0.000000 0
-0.000000 0.000000 0
-0.000000 0.000000 0
-0.000000 0.000000 0
-0.000000 0.000000 0
-0.000000 0.000000 0
-0.000000 0.000000 0
-0.000000 0.000000 0
-0.000000 0.000000 0
-0.000000 0.000000 0
-0.000000 0.000000 0
-0.000000 0.000000 0
0.000000 0.000000 0
0.000000 0.000000 0
0.000000 0.000000 0
0.000000 0.000000 0
0.000000 0.000000 0
0.000000 0.000000 0
0.000000 0.000000 0
0.000000 0.000000 0
-0.000000 0.000000 0
-0.000000 0.000000 0
0.000000 0.000000 0
0.000000 0.000001 0
0.000061 -0.000059 0
0.000082 -0.000022 0
-0.000014 0.000055 0
-0.000256 0.000143 0
-0.000645 0.000227 0
-0.001170 0.000301 0
-0.001813 0.000362 0
-0.002553 0.000411 0
-0.003370 0.000448 0
-0.004246 0.000475 0
-0.005162 0.000492 0
-0.006101 0.000501 0
-0.007049 0.000503 0
-0.007993 0.000497 0
-0.008919 0.000485 0
-0.009814 0.000467 0
-0.010665 0.000441 0
-0.011462 0.000409 0
-0.012190 0.000371 0
-0.012837 0.000326 0
-0.013392 0.000274 0
-0.013843 0.000216 0
-0.014178 0.000152 0
-0.014388 0.000082 0
-0.014464 0.000009 0
-0.014400 -0.000068 0
-0.014193 -0.000146 0
-0.013842 -0.000224 0
-0.013349 -0.000300 0
-0.012721 -0.000372 0
-0.011966 -0.000438 0
-0.011099 -0.000496 0
-0.010136 -0.000543 0
-0.009097 -0.000578 0
-0.008007 -0.000599 0
-0.006890 -0.000606 0
-0.005773 -0.000598 0
-0.004683 -0.000573 0
-0.003649 -0.000534 0
-0.002696 -0.000481 0
-0.001847 -0.000415 0
-0.001123 -0.000339 0
-0.000540 -0.000255 0
-0.000107 -0.000167 0
0.000172 -0.000079 0
0.000303 0.000002 0
0.000305 0.000066 0
0.000212 0.000100 0
0.000082 0.000082 0
0.000000 -0.000000 0
0.000000 0.000001 0
0.000024 -0.000081 0
-0.000075 0.000075 0
-0.000386 0.000336 0
-0.000944 0.000630 0
-0.001751 0.000914 0
-0.002793 0.001168 0
-0.004039 0.001383 0
-0.005458 0.001558 0
-0.007014 0.001693 0
-0.008675 0.001791 0
-0.010408 0.001855 0
-0.012184 0.001888 0
-0.013974 0.001892 0
-0.015753 0.001869 0
-0.017495 0.001821 0
-0.019177 0.001747 0
-0.020773 0.001648 0
-0.022262 0.001524 0
-0.023619 0.001376 0
-0.024821 0.001203 0
-0.025846 0.001005 0
-0.026674 0.000786 0
-0.027283 0.000545 0
-0.027658 0.000286 0
-0.027784 0.000013 0
-0.027650 -0.000270 0
-0.027252 -0.000558 0
-0.026588 -0.000844 0
-0.025665 -0.001122 0
-0.024493 -0.001383 0
-0.023091 -0.001622 0
-0.021484 -0.001830 0
-0.019702 -0.002001 0
-0.017782 -0.002129 0
-0.015766 -0.002208 0
-0.013699 -0.002234 0
-0.011629 -0.002206 0
-0.009604 -0.002123 0
-0.007674 -0.001988 0
-0.005883 -0.001802 0
-0.004274 -0.001573 0
-0.002882 -0.001307 0
-0.001735 -0.001016 0
-0.000850 -0.000712 0
-0.000232 -0.000410 0
0.000131 -0.000133 0
0.000267 0.000091 0
0.000231 0.000223 0
0.000102 0.000212 0
0.000000 -0.000000 0
0.000000 0.000000 0
-0.000057 0.000016 0
-0.000350 0.000386 0
-0.000947 0.000923 0
-0.001876 0.001509 0
-0.003133 0.002077 0
-0.004696 0.002589 0
-0.006528 0.003028 0
-0.008587 0.003386 0
-0.010830 0.003665 0
-0.013211 0.003869 0
-0.015688 0.004001 0
-0.018220 0.004067 0
-0.020769 0.004072 0
-0.023297 0.004019 0
-0.025769 0.003909 0
-0.028150 0.003745 0
-0.030407 0.003526 0
-0.032506 0.003255 0
-0.034414 0.002930 0
-0.036100 0.002553 0
-0.037532 0.002126 0
-0.038683 0.001653 0
-0.039525 0.001136 0
-0.040036 0.000583 0
-0.040197 0.000001 0
-0.039996 -0.000600 0
-0.039426 -0.001208 0
-0.038487 -0.001812 0
-0.037187 -0.002396 0
-0.035544 -0.002946 0
-0.033582 -0.003447 0
-0.031336 -0.003885 0
-0.028847 -0.004244 0
-0.026166 -0.004514 0
-0.023347 -0.004683 0
-0.020453 -0.004744 0
-0.017548 -0.004692 0
-0.014697 -0.004528 0
-0.011966 -0.004255 0
-0.009417 -0.003880 0
-0.007105 -0.003416 0
-0.005078 -0.002878 0
-0.003373 -0.002287 0
-0.002015 -0.001671 0
-0.001010 -0.001060 0
-0.000345 -0.000497 0
0.000012 -0.000034 0
0.000122 0.000265 0
0.000076 0.000312 0
0.000000 -0.000000 0
0.000000 -0.000000 0
-0.000154 0.000268 0
-0.000676 0.000965 0
-0.001601 0.001863 0
-0.002936 0.002817 0
-0.004666 0.003734 0
-0.006756 0.004563 0
-0.009165 0.005275 0
-0.011842 0.005860 0
-0.014735 0.006317 0
-0.017790 0.006649 0
-0.020956 0.006864 0
-0.024184 0.006969 0
-0.027426 0.006969 0
-0.030636 0.006869 0
-0.033769 0.006674 0
-0.036782 0.006385 0
-0.039633 0.006003 0
-0.042279 0.005531 0
-0.044681 0.004970 0
-0.046798 0.004321 0
-0.048593 0.003588 0
-0.050031 0.002778 0
-0.051080 0.001898 0
-0.051712 0.000958 0
-0.051907 -0.000027 0
-0.051649 -0.001042 0
-0.050930 -0.002067 0
-0.049752 -0.003083 0
-0.048126 -0.004065 0
-0.046072 -0.004989 0
-0.043622 -0.005830 0
-0.040817 -0.006566 0
-0.037708 -0.007172 0
-0.034354 -0.007629 0
-0.030824 -0.007920 0
-0.027192 -0.008033 0
-0.023534 -0.007962 0
-0.019932 -0.007705 0
-0.016464 -0.007268 0
-0.013204 -0.006664 0
-0.010221 -0.005912 0
-0.007574 -0.005039 0
-0.005308 -0.004079 0
-0.003455 -0.003075 0
-0.002025 -0.002080 0
-0.001010 -0.001155 0
-0.000374 -0.000377 0
-0.000059 0.000159 0
0.000025 0.000335 0
0.000000 -0.000000 0
0.000000 -0.000001 0
-0.000254 0.000691 0
-0.001019 0.001834 0
-0.002291 0.003184 0
-0.004052 0.004574 0
-0.006266 0.005898 0
-0.008890 0.007089 0
-0.011869 0.008113 0
-0.015147 0.008955 0
-0.018663 0.009613 0
-0.022357 0.010090 0
-0.026172 0.010396 0
-0.030049 0.010537 0
-0.033934 0.010524 0
-0.037774 0.010362 0
-0.041516 0.010055 0
-0.045109 0.009609 0
-0.048504 0.009024 0
-0.051652 0.008303 0
-0.054505 0.007449 0
-0.057018 0.006465 0
-0.059148 0.005359 0
-0.060852 0.004139 0
-0.062096 0.002817 0
-0.062848 0.001410 0
-0.063084 -0.000063 0
-0.062786 -0.001577 0
-0.061947 -0.003105 0
-0.060568 -0.004615 0
-0.058661 -0.006076 0
-0.056251 -0.007450 0
-0.053373 -0.008703 0
-0.050074 -0.009799 0
-0.046411 -0.010707 0
-0.042453 -0.011397 0
-0.038276 -0.011845 0
-0.033967 -0.012033 0
-0.029613 -0.011952 0
-0.025305 -0.011599 0
-0.021135 -0.010984 0
-0.017190 -0.010123 0
-0.013550 -0.009046 0
-0.010283 -0.007790 0
-0.007446 -0.006406 0
-0.005075 -0.004954 0
-0.003190 -0.003506 0
-0.001786 -0.002149 0
-0.000834 -0.000984 0
-0.000278 -0.000135 0
-0.000036 0.000254 0
0.000000 0.000000 0
0.000000 -0.000000 0
-0.000352 0.001287 0
-0.001363 0.003003 0
-0.002987 0.004896 0
-0.005178 0.006792 0
-0.007882 0.008572 0
-0.011037 0.010165 0
-0.014580 0.011532 0
-0.018445 0.012654 0
-0.022564 0.013527 0
-0.026871 0.014158 0
-0.031301 0.014556 0
-0.035792 0.014731 0
-0.040282 0.014693 0
-0.044711 0.014450 0
-0.049021 0.014009 0
-0.053157 0.013373 0
-0.057060 0.012547 0
-0.060678 0.011533 0
-0.063956 0.010336 0
-0.066844 0.008963 0
-0.069293 0.007422 0
-0.071257 0.005726 0
-0.072697 0.003894 0
-0.073577 0.001946 0
-0.073871 -0.000089 0
-0.073559 -0.002179 0
-0.072632 -0.004286 0
-0.071091 -0.006368 0
-0.068950 -0.008381 0
-0.066233 -0.010277 0
-0.062979 -0.012008 0
-0.059239 -0.013528 0
-0.055075 -0.014793 0
-0.050563 -0.015763 0
-0.045787 -0.016406 0
-0.040840 -0.016697 0
-0.035822 -0.016624 0
-0.030835 -0.016182 0
-0.025981 -0.015383 0
-0.021358 -0.014249 0
-0.017057 -0.012819 0
-0.013160 -0.011143 0
-0.009732 -0.009287 0
-0.006820 -0.007331 0
-0.004451 -0.005369 0
-0.002630 -0.003511 0
-0.001333 -0.001885 0
-0.000514 -0.000639 0
-0.000101 0.000057 0
0.000000 -0.000000 0
0.000000 -0.000000 0
-0.000447 0.002054 0
-0.001697 0.004470 0
-0.003671 0.007000 0
-0.006291 0.009469 0
-0.009479 0.011756 0
-0.013160 0.013787 0
-0.017257 0.015521 0
-0.021695 0.016939 0
-0.026398 0.018039 0
-0.031295 0.018828 0
-0.036315 0.019317 0
-0.041391 0.019518 0
-0.046455 0.019443 0
-0.051444 0.019101 0
-0.056294 0.018501 0
-0.060943 0.017647 0
-0.065331 0.016545 0
-0.069399 0.015199 0
-0.073087 0.013615 0
-0.076340 0.011802 0
-0.079106 0.009772 0
-0.081334 0.007543 0
-0.082981 0.005137 0
-0.084009 0.002584 0
-0.084387 -0.000081 0
-0.084093 -0.002816 0
-0.083117 -0.005572 0
-0.081457 -0.008297 0
-0.079126 -0.010934 0
-0.076150 -0.013421 0
-0.072568 -0.015697 0
-0.068433 -0.017704 0
-0.063811 -0.019383 0
-0.058783 -0.020685 0
-0.053440 -0.021567 0
-0.047882 -0.021998 0
-0.042217 -0.021957 0
-0.036559 -0.021441 0
-0.031020 -0.020461 0
-0.025711 -0.019047 0
-0.020736 -0.017243 0
-0.016187 -0.015116 0
-0.012143 -0.012746 0
-0.008662 -0.010234 0
-0.005782 -0.007696 0
-0.003517 -0.005267 0
-0.001854 -0.003100 0
-0.000758 -0.001366 0
-0.000166 -0.000260 0
0.000000 -0.000000 0
0.000000 0.000000 0
-0.000537 0.002985 0
-0.002020 0.006227 0
-0.004334 0.009489 0
-0.007372 0.012599 0
-0.011036 0.015441 0
-0.015232 0.017944 0
-0.019870 0.020066 0
-0.024865 0.021794 0
-0.030135 0.023128 0
-0.035601 0.024076 0
-0.041189 0.024652 0
-0.046825 0.024871 0
-0.052440 0.024746 0
-0.057965 0.024289 0
-0.063333 0.023508 0
-0.068478 0.022411 0
-0.073336 0.021002 0
-0.077842 0.019288 0
-0.081935 0.017278 0
-0.085556 0.014982 0
-0.088646 0.012416 0
-0.091152 0.009602 0
-0.093028 0.006568 0
-0.094231 0.003352 0
-0.094726 -0.000005 0
-0.094490 -0.003449 0
-0.093506 -0.006922 0
-0.091774 -0.010359 0
-0.089301 -0.013687 0
-0.086114 -0.016835 0
-0.082249 -0.019725 0
-0.077762 -0.022285 0
-0.072720 -0.024442 0
-0.067207 -0.026134 0
-0.061319 -0.027307 0
-0.055164 -0.027920 0
-0.048858 -0.027947 0
-0.042525 -0.027379 0
-0.036290 -0.026230 0
-0.030276 -0.024533 0
-0.024601 -0.022343 0
-0.019371 -0.019736 0
-0.014679 -0.016812 0
-0.010597 -0.013692 0
-0.007175 -0.010514 0
-0.004441 -0.007439 0
-0.002393 -0.004644 0
-0.001006 -0.002327 0
-0.000231 -0.000701 0
0.000000 -0.000000 0
0.000000 0.000000 0
-0.000623 0.004074 0
-0.002329 0.008266 0
-0.004969 0.012352 0
-0.008413 0.016171 0
-0.012537 0.019615 0
-0.017232 0.022621 0
-0.022395 0.025154 0
-0.027930 0.027204 0
-0.033747 0.028775 0
-0.039763 0.029882 0
-0.045898 0.030541 0
-0.052075 0.030769 0
-0.058221 0.030583 0
-0.064264 0.029994 0
-0.070134 0.029014 0
-0.075763 0.027650 0
-0.081082 0.025909 0
-0.086024 0.023798 0
-0.090525 0.021328 0
-0.094520 0.018512 0
-0.097951 0.015369 0
-0.100758 0.011925 0
-0.102891 0.008216 0
-0.104304 0.004282 0
-0.104958 0.000178 0
-0.104824 -0.004035 0
-0.103883 -0.008288 0
-0.102128 -0.012502 0
-0.099566 -0.016594 0
-0.096216 -0.020473 0
-0.092116 -0.024049 0
-0.087318 -0.027233 0
-0.081891 -0.029938 0
-0.075920 -0.032087 0
-0.069505 -0.033611 0
-0.062761 -0.034458 0
-0.055813 -0.034595 0
-0.048793 -0.034009 0
-0.041841 -0.032710 0
-0.035094 -0.030736 0
-0.028684 -0.028148 0
-0.022735 -0.025038 0
-0.017355 -0.021521 0
-0.012634 -0.017738 0
-0.008636 -0.013852 0
-0.005404 -0.010049 0
-0.002949 -0.006534 0
-0.001260 -0.003528 0
-0.000297 -0.001267 0
0.000000 -0.000000 0
0.000000 0.000000 0
-0.000704 0.005314 0
-0.002621 0.010574 0
-0.005574 0.015573 0
-0.009405 0.020167 0
-0.013972 0.024261 0
-0.019147 0.027801 0
-0.024814 0.030764 0
-0.030869 0.033147 0
-0.037213 0.034961 0
-0.043758 0.036226 0
-0.050420 0.036964 0
-0.057119 0.037194 0
-0.063778 0.036935 0
-0.070324 0.036202 0
-0.076684 0.035007 0
-0.082788 0.033358 0
-0.088565 0.031263 0
-0.093946 0.028732 0
-0.098863 0.025774 0
-0.103249 0.022408 0
-0.107041 0.018654 0
-0.110178 0.014543 0
-0.112604 0.010114 0
-0.114268 0.005418 0
-0.115127 0.000515 0
-0.115147 -0.004524 0
-0.114303 -0.009618 0
-0.112582 -0.014676 0
-0.109985 -0.019600 0
-0.106527 -0.024285 0
-0.102241 -0.028624 0
-0.097176 -0.032510 0
-0.091400 -0.035841 0
-0.084998 -0.038520 0
-0.078073 -0.040466 0
-0.070746 -0.041612 0
-0.063148 -0.041914 0
-0.055426 -0.041350 0
-0.047730 -0.039930 0
-0.040214 -0.037690 0
-0.033029 -0.034701 0
-0.026315 -0.031065 0
-0.020201 -0.026914 0
-0.014795 -0.022411 0
-0.010181 -0.017744 0
-0.006417 -0.013126 0
-0.003531 -0.008788 0
-0.001523 -0.004980 0
-0.000363 -0.001961 0
0.000000 -0.000000 0
0.000000 0.000000 0
-0.000781 0.006695 0
-0.002897 0.013136 0
-0.006145 0.019136 0
-0.010344 0.024569 0
-0.015331 0.029357 0
-0.020963 0.033463 0
-0.027112 0.036875 0
-0.033663 0.039602 0
-0.040512 0.041665 0
-0.047564 0.043089 0
-0.054731 0.043901 0
-0.061932 0.044127 0
-0.069088 0.043788 0
-0.076123 0.042901 0
-0.082964 0.041478 0
-0.089537 0.039531 0
-0.095772 0.037067 0
-0.101596 0.034096 0
-0.106941 0.030631 0
-0.111737 0.026690 0
-0.115916 0.022298 0
-0.119415 0.017488 0
-0.122174 0.012306 0
-0.124136 0.006806 0
-0.125253 0.001058 0
-0.125483 -0.004860 0
-0.124795 -0.010854 0
-0.123169 -0.016821 0
-0.120598 -0.022649 0
-0.117092 -0.028216 0
-0.112675 -0.033400 0
-0.107392 -0.038074 0
-0.101307 -0.042117 0
-0.094504 -0.045413 0
-0.087088 -0.047863 0
-0.079184 -0.049383 0
-0.070931 -0.049915 0
-0.062487 -0.049427 0
-0.054018 -0.047922 0
-0.045693 -0.045438 0
-0.037684 -0.042048 0
-0.030154 -0.037866 0
-0.023253 -0.033041 0
-0.017111 -0.027757 0
-0.011834 -0.022230 0
-0.007498 -0.016700 0
-0.004149 -0.011429 0
-0.001800 -0.006696 0
-0.000432 -0.002789 0
0.000000 -0.000000 0
0.000000 0.000000 0
-0.000852 0.008210 0
-0.003154 0.015938 0
-0.006679 0.023020 0
-0.011223 0.029353 0
-0.016606 0.034880 0
-0.022669 0.039582 0
-0.029273 0.043463 0
-0.036294 0.046546 0
-0.043622 0.048862 0
-0.051157 0.050446 0
-0.058807 0.051332 0
-0.066490 0.051551 0
-0.074125 0.051126 0
-0.081635 0.050078 0
-0.088945 0.048421 0
-0.095983 0.046166 0
-0.102676 0.043323 0
-0.108951 0.039901 0
-0.114736 0.035915 0
-0.119962 0.031383 0
-0.124557 0.026333 0
-0.128453 0.020800 0
-0.131587 0.014835 0
-0.133896 0.008497 0
-0.135326 0.001862 0
-0.135827 -0.004982 0
-0.135360 -0.011932 0
-0.133895 -0.018873 0
-0.131419 -0.025677 0
-0.127928 -0.032208 0
-0.123442 -0.038324 0
-0.117996 -0.043878 0
-0.111650 -0.048728 0
-0.104483 -0.052739 0
-0.096601 -0.055786 0
-0.088130 -0.057769 0
-0.079220 -0.058610 0
-0.070037 -0.058264 0
-0.060763 -0.056724 0
-0.051588 -0.054024 0
-0.042705 -0.050240 0
-0.034301 -0.045496 0
-0.026552 -0.039957 0
-0.019615 -0.033830 0
-0.013619 -0.027357 0
-0.008664 -0.020810 0
-0.004814 -0.014486 0
-0.002097 -0.008696 0
-0.000506 -0.003761 0
0.000000 -0.000000 0
0.000000 -0.000000 0
-0.000918 0.009850 0
-0.003392 0.018963 0
-0.007173 0.027204 0
-0.012037 0.034495 0
-0.017788 0.040803 0
-0.024253 0.046130 0
-0.031283 0.050500 0
-0.038744 0.053951 0
-0.046522 0.056527 0
-0.054512 0.058274 0
-0.062621 0.059235 0
-0.070763 0.059444 0
-0.078856 0.058932 0
-0.086825 0.057721 0
-0.094594 0.055827 0
-0.102089 0.053261 0
-0.109239 0.050034 0
-0.115970 0.046157 0
-0.122209 0.041642 0
-0.127883 0.036510 0
-0.132921 0.030790 0
-0.137250 0.024519 0
-0.140802 0.017749 0
-0.143509 0.010545 0
-0.145308 0.002988 0
-0.146144 -0.004826 0
-0.145965 -0.012785 0
-0.144735 -0.020762 0
-0.142425 -0.028616 0
-0.139024 -0.036193 0
-0.134538 -0.043332 0
-0.128994 -0.049867 0
-0.122442 -0.055630 0
-0.114958 -0.060462 0
-0.106643 -0.064216 0
-0.097626 -0.066764 0
-0.088061 -0.068008 0
-0.078128 -0.067884 0
-0.068022 -0.066371 0
-0.057955 -0.063496 0
-0.048145 -0.059335 0
-0.038806 -0.054018 0
-0.030144 -0.047727 0
-0.022345 -0.040691 0
-0.015568 -0.033181 0
-0.009937 -0.025505 0
-0.005539 -0.017996 0
-0.002421 -0.011004 0
-0.000587 -0.004886 0
0.000000 -0.000000 0
0.000000 -0.000000 0
-0.000978 0.011603 0
-0.003609 0.022194 0
-0.007624 0.031665 0
-0.012781 0.039968 0
-0.018869 0.047096 0
-0.025704 0.053077 0
-0.033126 0.057954 0
-0.040995 0.061786 0
-0.049191 0.064630 0
-0.057605 0.066545 0
-0.066143 0.067583 0
-0.074718 0.067786 0
-0.083247 0.067188 0
-0.091655 0.065815 0
-0.099867 0.063685 0
-0.107810 0.060811 0
-0.115412 0.057203 0
-0.122601 0.052871 0
-0.129302 0.047828 0
-0.135442 0.042095 0
-0.140947 0.035700 0
-0.145742 0.028682 0
-0.149753 0.021093 0
-0.152906 0.013004 0
-0.155133 0.004497 0
-0.156367 -0.004325 0
-0.156548 -0.013341 0
-0.155626 -0.022414 0
-0.153562 -0.031388 0
-0.150330 -0.040095 0
-0.145923 -0.048354 0
-0.140356 -0.055974 0
-0.133667 -0.062765 0
-0.125924 -0.068538 0
-0.117222 -0.073119 0
-0.107689 -0.076351 0
-0.097485 -0.078108 0
-0.086798 -0.078304 0
-0.075840 -0.076897 0
-0.064844 -0.073901 0
-0.054055 -0.069389 0
-0.043718 -0.063497 0
-0.034073 -0.056418 0
-0.025340 -0.048407 0
-0.017710 -0.039765 0
-0.011339 -0.030839 0
-0.006340 -0.022001 0
-0.002780 -0.013649 0
-0.000676 -0.006182 0
0.000000 -0.000000 0
0.000000 -0.000000 0
-0.001031 0.013459 0
-0.003803 0.025610 0
-0.008028 0.036376 0
-0.013448 0.045740 0
-0.019840 0.053726 0
-0.027009 0.060387 0
-0.034786 0.065791 0
-0.043027 0.070016 0
-0.051604 0.073138 0
-0.060409 0.075227 0
-0.069343 0.076347 0
-0.078319 0.076548 0
-0.087257 0.075870 0
-0.096079 0.074341 0
-0.104714 0.071982 0
-0.113090 0.068807 0
-0.121135 0.064825 0
-0.128777 0.060046 0
-0.135945 0.054484 0
-0.142562 0.048156 0
-0.148553 0.041089 0
-0.153840 0.033324 0
-0.158346 0.024913 0
-0.161992 0.015925 0
-0.164700 0.006448 0
-0.166396 -0.003411 0
-0.167008 -0.013525 0
-0.166473 -0.023748 0
-0.164737 -0.033912 0
-0.161761 -0.043832 0
-0.157521 -0.053306 0
-0.152017 -0.062122 0
-0.145273 -0.070062 0
-0.137343 -0.076907 0
-0.128316 -0.082450 0
-0.118315 -0.086500 0
-0.107501 -0.088899 0
-0.096070 -0.089530 0
-0.084249 -0.088325 0
-0.072295 -0.085281 0
-0.060479 -0.080461 0
-0.049083 -0.074000 0
-0.038382 -0.066106 0
-0.028636 -0.057054 0
-0.020076 -0.047182 0
-0.012893 -0.036874 0
-0.007231 -0.026555 0
-0.003180 -0.016667 0
-0.000777 -0.007666 0
0.000000 -0.000000 0
0.000000 0.000000 0
-0.001078 0.015406 0
-0.003973 0.029190 0
-0.008381 0.041310 0
-0.014033 0.051780 0
-0.020693 0.060657 0
-0.028157 0.068023 0
-0.036250 0.073972 0
-0.044820 0.078603 0
-0.053740 0.082012 0
-0.062895 0.084284 0
-0.072187 0.085493 0
-0.081529 0.085699 0
-0.090842 0.084948 0
-0.100049 0.083273 0
-0.109081 0.080696 0
-0.117866 0.077232 0
-0.126337 0.072890 0
-0.134423 0.067680 0
-0.142051 0.061612 0
-0.149147 0.054703 0
-0.155635 0.046979 0
-0.161435 0.038475 0
-0.166466 0.029245 0
-0.170643 0.019357 0
-0.173881 0.008900 0
-0.176097 -0.002018 0
-0.177209 -0.013264 0
-0.177139 -0.024684 0
-0.175818 -0.036100 0
-0.173191 -0.047311 0
-0.169215 -0.058097 0
-0.163871 -0.068222 0
-0.157167 -0.077438 0
-0.149141 -0.085495 0
-0.139869 -0.092146 0
-0.129465 -0.097166 0
-0.118089 -0.100354 0
-0.105942 -0.101555 0
-0.093264 -0.100671 0
-0.080333 -0.097671 0
-0.067452 -0.092602 0
-0.054938 -0.085594 0
-0.043109 -0.076865 0
-0.032269 -0.066713 0
-0.022696 -0.055509 0
-0.014620 -0.043684 0
-0.008225 -0.031714 0
-0.003629 -0.020102 0
-0.000890 -0.009362 0
0.000000 -0.000000 0
0.000000 0.000000 0
-0.001117 0.017432 0
-0.004116 0.032913 0
-0.008680 0.046436 0
-0.014528 0.058052 0
-0.021417 0.067850 0
-0.029135 0.075944 0
-0.037500 0.082455 0
-0.046357 0.087506 0
-0.055573 0.091212 0
-0.065035 0.093675 0
-0.074642 0.094982 0
-0.084309 0.095202 0
-0.093956 0.094389 0
-0.103511 0.092580 0
-0.112904 0.089799 0
-0.122070 0.086063 0
-0.130940 0.081381 0
-0.139448 0.075760 0
-0.147522 0.069208 0
-0.155090 0.061740 0
-0.162075 0.053378 0
-0.168397 0.044155 0
-0.173970 0.034120 0
-0.178707 0.023341 0
-0.182516 0.011903 0
-0.185305 -0.000083 0
-0.186980 -0.012484 0
-0.187451 -0.025139 0
-0.186632 -0.037860 0
-0.184449 -0.050435 0
-0.180841 -0.062625 0
-0.175767 -0.074170 0
-0.169214 -0.084792 0
-0.161199 -0.094206 0
-0.151782 -0.102126 0
-0.141064 -0.108280 0
-0.129197 -0.112423 0
-0.116383 -0.114355 0
-0.102874 -0.113933 0
-0.088967 -0.111093 0
-0.074994 -0.105856 0
-0.061312 -0.098343 0
-0.048286 -0.088774 0
-0.036272 -0.077467 0
-0.025597 -0.064831 0
-0.016543 -0.051345 0
-0.009337 -0.037546 0
-0.004134 -0.024002 0
-0.001018 -0.011295 0
0.000000 -0.000000 0
0.000000 0.000000 0
-0.001149 0.019522 0
-0.004231 0.036753 0
-0.008921 0.051722 0
-0.014930 0.064518 0
-0.022007 0.075264 0
-0.029934 0.084106 0
-0.038524 0.091194 0
-0.047619 0.096677 0
-0.057083 0.100690 0
-0.066802 0.103353 0
-0.076675 0.104768 0
-0.086618 0.105013 0
-0.096553 0.104150 0
-0.106409 0.102221 0