# vtk DataFile Version 2.0
generated by CFD-lab course output (written by Tobias Neckel) 
ASCII

DATASET STRUCTURED_GRID
DIMENSIONS  51 51 1 
POINTS 2601 float

0.000000 0.000000 0
0.020000 0.000000 0
0.040000 0.000000 0
0.060000 0.000000 0
0.080000 0.000000 0
0.100000 0.000000 0
0.120000 0.000000 0
0.140000 0.000000 0
0.160000 0.000000 0
0.180000 0.000000 0
0.200000 0.000000 0
0.220000 0.000000 0
0.240000 0.000000 0
0.260000 0.000000 0
0.280000 0.000000 0
0.300000 0.000000 0
0.320000 0.000000 0
0.340000 0.000000 0
0.360000 0.000000 0
0.380000 0.000000 0
0.400000 0.000000 0
0.420000 0.000000 0
0.440000 0.000000 0
0.460000 0.000000 0
0.480000 0.000000 0
0.500000 0.000000 0
0.520000 0.000000 0
0.540000 0.000000 0
0.560000 0.000000 0
0.580000 0.000000 0
0.600000 0.000000 0
0.620000 0.000000 0
0.640000 0.000000 0
0.660000 0.000000 0
0.680000 0.000000 0
0.700000 0.000000 0
0.720000 0.000000 0
0.740000 0.000000 0
0.760000 0.000000 0
0.780000 0.000000 0
0.800000 0.000000 0
0.820000 0.000000 0
0.840000 0.000000 0
0.860000 0.000000 0
0.880000 0.000000 0
0.900000 0.000000 0
0.920000 0.000000 0
0.940000 0.000000 0
0.960000 0.000000 0
0.980000 0.000000 0
1.000000 0.000000 0
0.000000 0.020000 0
0.020000 0.020000 0
0.040000 0.020000 0
0.060000 0.020000 0
0.080000 0.020000 0
0.100000 0.020000 0
0.120000 0.020000 0
0.140000 0.020000 0
0.160000 0.020000 0
0.180000 0.020000 0
0.200000 0.020000 0
0.220000 0.020000 0
0.240000 0.020000 0
0.260000 0.020000 0
0.280000 0.020000 0
0.300000 0.020000 0
0.320000 0.020000 0
0.340000 0.020000 0
0.360000 0.020000 0
0.380000 0.020000 0
0.400000 0.020000 0
0.420000 0.020000 0
0.440000 0.020000 0
0.460000 0.020000 0
0.480000 0.020000 0
0.500000 0.020000 0
0.520000 0.020000 0
0.540000 0.020000 0
0.560000 0.020000 0
0.580000 0.020000 0
0.600000 0.020000 0
0.620000 0.020000 0
0.640000 0.020000 0
0.660000 0.020000 0
0.680000 0.020000 0
0.700000 0.020000 0
0.720000 0.020000 0
0.740000 0.020000 0
0.760000 0.020000 0
0.780000 0.020000 0
0.800000 0.020000 0
0.820000 0.020000 0
0.840000 0.020000 0
0.860000 0.020000 0
0.880000 0.020000 0
0.900000 0.020000 0
0.920000 0.020000 0
0.940000 0.020000 0
0.960000 0.020000 0
0.980000 0.020000 0
1.000000 0.020000 0
0.000000 0.040000 0
0.020000 0.040000 0
0.040000 0.040000 0
0.060000 0.040000 0
0.080000 0.040000 0
0.100000 0.040000 0
0.120000 0.040000 0
0.140000 0.040000 0
0.160000 0.040000 0
0.180000 0.040000 0
0.200000 0.040000 0
0.220000 0.040000 0
0.240000 0.040000 0
0.260000 0.040000 0
0.280000 0.040000 0
0.300000 0.040000 0
0.320000 0.040000 0
0.340000 0.040000 0
0.360000 0.040000 0
0.380000 0.040000 0
0.400000 0.040000 0
0.420000 0.040000 0
0.440000 0.040000 0
0.460000 0.040000 0
0.480000 0.040000 0
0.500000 0.040000 0
0.520000 0.040000 0
0.540000 0.040000 0
0.560000 0.040000 0
0.580000 0.040000 0
0.600000 0.040000 0
0.620000 0.040000 0
0.640000 0.040000 0
0.660000 0.040000 0
0.680000 0.040000 0
0.700000 0.040000 0
0.720000 0.040000 0
0.740000 0.040000 0
0.760000 0.040000 0
0.780000 0.040000 0
0.800000 0.040000 0
0.820000 0.040000 0
0.840000 0.040000 0
0.860000 0.040000 0
0.880000 0.040000 0
0.900000 0.040000 0
0.920000 0.040000 0
0.940000 0.040000 0
0.960000 0.040000 0
0.980000 0.040000 0
1.000000 0.040000 0
0.000000 0.060000 0
0.020000 0.060000 0
0.040000 0.060000 0
0.060000 0.060000 0
0.080000 0.060000 0
0.100000 0.060000 0
0.120000 0.060000 0
0.140000 0.060000 0
0.160000 0.060000 0
0.180000 0.060000 0
0.200000 0.060000 0
0.220000 0.060000 0
0.240000 0.060000 0
0.260000 0.060000 0
0.280000 0.060000 0
0.300000 0.060000 0
0.320000 0.060000 0
0.340000 0.060000 0
0.360000 0.060000 0
0.380000 0.060000 0
0.400000 0.060000 0
0.420000 0.060000 0
0.440000 0.060000 0
0.460000 0.060000 0
0.480000 0.060000 0
0.500000 0.060000 0
0.520000 0.060000 0
0.540000 0.060000 0
0.560000 0.060000 0
0.580000 0.060000 0
0.600000 0.060000 0
0.620000 0.060000 0
0.640000 0.060000 0
0.660000 0.060000 0
0.680000 0.060000 0
0.700000 0.060000 0
0.720000 0.060000 0
0.740000 0.060000 0
0.760000 0.060000 0
0.780000 0.060000 0
0.800000 0.060000 0
0.820000 0.060000 0
0.840000 0.060000 0
0.860000 0.060000 0
0.880000 0.060000 0
0.900000 0.060000 0
0.920000 0.060000 0
0.940000 0.060000 0
0.960000 0.060000 0
0.980000 0.060000 0
1.000000 0.060000 0
0.000000 0.080000 0
0.020000 0.080000 0
0.040000 0.080000 0
0.060000 0.080000 0
0.080000 0.080000 0
0.100000 0.080000 0
0.120000 0.080000 0
0.140000 0.080000 0
0.160000 0.080000 0
0.180000 0.080000 0
0.200000 0.080000 0
0.220000 0.080000 0
0.240000 0.080000 0
0.260000 0.080000 0
0.280000 0.080000 0
0.300000 0.080000 0
0.320000 0.080000 0
0.340000 0.080000 0
0.360000 0.080000 0
0.380000 0.080000 0
0.400000 0.080000 0
0.420000 0.080000 0
0.440000 0.080000 0
0.460000 0.080000 0
0.480000 0.080000 0
0.500000 0.080000 0
0.520000 0.080000 0
0.540000 0.080000 0
0.560000 0.080000 0
0.580000 0.080000 0
0.600000 0.080000 0
0.620000 0.080000 0
0.640000 0.080000 0
0.660000 0.080000 0
0.680000 0.080000 0
0.700000 0.080000 0
0.720000 0.080000 0
0.740000 0.080000 0
0.760000 0.080000 0
0.780000 0.080000 0
0.800000 0.080000 0
0.820000 0.080000 0
0.840000 0.080000 0
0.860000 0.080000 0
0.880000 0.080000 0
0.900000 0.080000 0
0.920000 0.080000 0
0.940000 0.080000 0
0.960000 0.080000 0
0.980000 0.080000 0
1.000000 0.080000 0
0.000000 0.100000 0
0.020000 0.100000 0
0.040000 0.100000 0
0.060000 0.100000 0
0.080000 0.100000 0
0.100000 0.100000 0
0.120000 0.100000 0
0.140000 0.100000 0
0.160000 0.100000 0
0.180000 0.100000 0
0.200000 0.100000 0
0.220000 0.100000 0
0.240000 0.100000 0
0.260000 0.100000 0
0.280000 0.100000 0
0.300000 0.100000 0
0.320000 0.100000 0
0.340000 0.100000 0
0.360000 0.100000 0
0.380000 0.100000 0
0.400000 0.100000 0
0.420000 0.100000 0
0.440000 0.100000 0
0.460000 0.100000 0
0.480000 0.100000 0
0.500000 0.100000 0
0.520000 0.100000 0
0.540000 0.100000 0
0.560000 0.100000 0
0.580000 0.100000 0
0.600000 0.100000 0
0.620000 0.100000 0
0.640000 0.100000 0
0.660000 0.100000 0
0.680000 0.100000 0
0.700000 0.100000 0
0.720000 0.100000 0
0.740000 0.100000 0
0.760000 0.100000 0
0.780000 0.100000 0
0.800000 0.100000 0
0.820000 0.100000 0
0.840000 0.100000 0
0.860000 0.100000 0
0.880000 0.100000 0
0.900000 0.100000 0
0.920000 0.100000 0
0.940000 0.100000 0
0.960000 0.100000 0
0.980000 0.100000 0
1.000000 0.100000 0
0.000000 0.120000 0
0.020000 0.120000 0
0.040000 0.120000 0
0.060000 0.120000 0
0.080000 0.120000 0
0.100000 0.120000 0
0.120000 0.120000 0
0.140000 0.120000 0
0.160000 0.120000 0
0.180000 0.120000 0
0.200000 0.120000 0
0.220000 0.120000 0
0.240000 0.120000 0
0.260000 0.120000 0
0.280000 0.120000 0
0.300000 0.120000 0
0.320000 0.120000 0
0.340000 0.120000 0
0.360000 0.120000 0
0.380000 0.120000 0
0.400000 0.120000 0
0.420000 0.120000 0
0.440000 0.120000 0
0.460000 0.120000 0
0.480000 0.120000 0
0.500000 0.120000 0
0.520000 0.120000 0
0.540000 0.120000 0
0.560000 0.120000 0
0.580000 0.120000 0
0.600000 0.120000 0
0.620000 0.120000 0
0.640000 0.120000 0
0.660000 0.120000 0
0.680000 0.120000 0
0.700000 0.120000 0
0.720000 0.120000 0
0.740000 0.120000 0
0.760000 0.120000 0
0.780000 0.120000 0
0.800000 0.120000 0
0.820000 0.120000 0
0.840000 0.120000 0
0.860000 0.120000 0
0.880000 0.120000 0
0.900000 0.120000 0
0.920000 0.120000 0
0.940000 0.120000 0
0.960000 0.120000 0
0.980000 0.120000 0
1.000000 0.120000 0
0.000000 0.140000 0
0.020000 0.140000 0
0.040000 0.140000 0
0.060000 0.140000 0
0.080000 0.140000 0
0.100000 0.140000 0
0.120000 0.140000 0
0.140000 0.140000 0
0.160000 0.140000 0
0.180000 0.140000 0
0.200000 0.140000 0
0.220000 0.140000 0
0.240000 0.140000 0
0.260000 0.140000 0
0.280000 0.140000 0
0.300000 0.140000 0
0.320000 0.140000 0
0.340000 0.140000 0
0.360000 0.140000 0
0.380000 0.140000 0
0.400000 0.140000 0
0.420000 0.140000 0
0.440000 0.140000 0
0.460000 0.140000 0
0.480000 0.140000 0
0.500000 0.140000 0
0.520000 0.140000 0
0.540000 0.140000 0
0.560000 0.140000 0
0.580000 0.140000 0
0.600000 0.140000 0
0.620000 0.140000 0
0.640000 0.140000 0
0.660000 0.140000 0
0.680000 0.140000 0
0.700000 0.140000 0
0.720000 0.140000 0
0.740000 0.140000 0
0.760000 0.140000 0
0.780000 0.140000 0
0.800000 0.140000 0
0.820000 0.140000 0
0.840000 0.140000 0
0.860000 0.140000 0
0.880000 0.140000 0
0.900000 0.140000 0
0.920000 0.140000 0
0.940000 0.140000 0
0.960000 0.140000 0
0.980000 0.140000 0
1.000000 0.140000 0
0.000000 0.160000 0
0.020000 0.160000 0
0.040000 0.160000 0
0.060000 0.160000 0
0.080000 0.160000 0
0.100000 0.160000 0
0.120000 0.160000 0
0.140000 0.160000 0
0.160000 0.160000 0
0.180000 0.160000 0
0.200000 0.160000 0
0.220000 0.160000 0
0.240000 0.160000 0
0.260000 0.160000 0
0.280000 0.160000 0
0.300000 0.160000 0
0.320000 0.160000 0
0.340000 0.160000 0
0.360000 0.160000 0
0.380000 0.160000 0
0.400000 0.160000 0
0.420000 0.160000 0
0.440000 0.160000 0
0.460000 0.160000 0
0.480000 0.160000 0
0.500000 0.160000 0
0.520000 0.160000 0
0.540000 0.160000 0
0.560000 0.160000 0
0.580000 0.160000 0
0.600000 0.160000 0
0.620000 0.160000 0
0.640000 0.160000 0
0.660000 0.160000 0
0.680000 0.160000 0
0.700000 0.160000 0
0.720000 0.160000 0
0.740000 0.160000 0
0.760000 0.160000 0
0.780000 0.160000 0
0.800000 0.160000 0
0.820000 0.160000 0
0.840000 0.160000 0
0.860000 0.160000 0
0.880000 0.160000 0
0.900000 0.160000 0
0.920000 0.160000 0
0.940000 0.160000 0
0.960000 0.160000 0
0.980000 0.160000 0
1.000000 0.160000 0
0.000000 0.180000 0
0.020000 0.180000 0
0.040000 0.180000 0
0.060000 0.180000 0
0.080000 0.180000 0
0.100000 0.180000 0
0.120000 0.180000 0
0.140000 0.180000 0
0.160000 0.180000 0
0.180000 0.180000 0
0.200000 0.180000 0
0.220000 0.180000 0
0.240000 0.180000 0
0.260000 0.180000 0
0.280000 0.180000 0
0.300000 0.180000 0
0.320000 0.180000 0
0.340000 0.180000 0
0.360000 0.180000 0
0.380000 0.180000 0
0.400000 0.180000 0
0.420000 0.180000 0
0.440000 0.180000 0
0.460000 0.180000 0
0.480000 0.180000 0
0.500000 0.180000 0
0.520000 0.180000 0
0.540000 0.180000 0
0.560000 0.180000 0
0.580000 0.180000 0
0.600000 0.180000 0
0.620000 0.180000 0
[...]
POINT_DATA 2601 

VECTORS velocity float
0.000000 0.000000 0
0.000000 0.000000 0
-0.000000 0.000000 0
-0.000001 0.000000 0
-0.000000 0.000000 0
-0.000000 0.000000 0
0.000000 0.000000 0
0.000000 0.000000 0
0.000000 0.000000 0
-0.000000 0.000000 0
-0.000000 0.000000 0
-0.000000 0.000000 0
-0.000000 0.000000 0
-0.000000 0.000000 0
0.000000 0.000000 0
-0.000000 0.000000 0
-0.000000 0.000000 0
-0.000000 0.000000 0
-0.000000 0.000000 0
-0.000000 0.000000 0
-0.000000 0.000000 0
-0.000000 0.000000 0
-0.000000 0.000000 0
-0.000000 0.000000 0
-0.000000 0.000000 0
-0.000000 0.000000 0
-0.000000 0.000000 0
-0.000000 0.000000 0
-0.000000 0.000000 0
-0.000000 0.000000 0
-0.000000 0.000000 0
-0.000000 0.000000 0
-0.000000 0.000000 0
-0.000000 0.000000 0
-0.000000 0.000000 0
-0.000000 0.000000 0
-0.000000 0.000000 0
-0.000000 0.000000 0
-0.000000 0.000000 0
-0.000000 0.000000 0
-0.000000 0.000000 0
0.000000 0.000000 0
0.000000 0.000000 0
0.000000 0.000000 0
0.000000 0.000000 0
0.000000 0.000000 0
0.000000 0.000000 0
0.000000 0.000000 0
0.000000 0.000000 0
0.000000 0.000000 0
0.000000 0.000000 0
0.000000 0.000000 0
0.000060 -0.000058 0
0.000080 -0.000023 0
-0.000016 0.000055 0
-0.000257 0.000143 0
-0.000644 0.000227 0
-0.001167 0.000300 0
-0.001807 0.000361 0
-0.002544 0.000409 0
-0.003359 0.000446 0
-0.004230 0.000473 0
-0.005142 0.000490 0
-0.006077 0.000499 0
-0.007021 0.000501 0
-0.007960 0.000495 0
-0.008882 0.000483 0
-0.009773 0.000464 0
-0.010621 0.000439 0
-0.011413 0.000408 0
-0.012138 0.000369 0
-0.012783 0.000324 0
-0.013336 0.000273 0
-0.013785 0.000215 0
-0.014119 0.000151 0
-0.014328 0.000082 0
-0.014404 0.000009 0
-0.014342 -0.000067 0
-0.014137 -0.000145 0
-0.013788 -0.000223 0
-0.013298 -0.000299 0
-0.012673 -0.000370 0
-0.011922 -0.000436 0
-0.011060 -0.000493 0
-0.010101 -0.000540 0
-0.009068 -0.000575 0
-0.007983 -0.000597 0
-0.006871 -0.000604 0
-0.005758 -0.000595 0
-0.004674 -0.000571 0
-0.003643 -0.000532 0
-0.002693 -0.000479 0
-0.001847 -0.000414 0
-0.001126 -0.000338 0
-0.000543 -0.000255 0
-0.000111 -0.000167 0
0.000168 -0.000080 0
0.000300 0.000001 0
0.000303 0.000065 0
0.000211 0.000099 0
0.000081 0.000081 0
0.000000 -0.000000 0
0.000000 -0.000000 0
0.000023 -0.000080 0
-0.000076 0.000075 0
-0.000386 0.000336 0
-0.000941 0.000628 0
-0.001746 0.000911 0
-0.002783 0.001164 0
-0.004025 0.001378 0
-0.005437 0.001551 0
-0.006987 0.001685 0
-0.008640 0.001783 0
-0.010365 0.001847 0
-0.012132 0.001879 0
-0.013915 0.001884 0
-0.015685 0.001861 0
-0.017420 0.001812 0
-0.019093 0.001739 0
-0.020683 0.001641 0
-0.022165 0.001518 0
-0.023516 0.001370 0
-0.024713 0.001197 0
-0.025734 0.001001 0
-0.026559 0.000783 0
-0.027166 0.000543 0
-0.027541 0.000286 0
-0.027667 0.000014 0
-0.027536 -0.000268 0
-0.027141 -0.000554 0
-0.026482 -0.000839 0
-0.025564 -0.001115 0
-0.024399 -0.001376 0
-0.023005 -0.001613 0
-0.021406 -0.001821 0
-0.019633 -0.001991 0
-0.017723 -0.002119 0
-0.015716 -0.002198 0
-0.013659 -0.002224 0
-0.011597 -0.002197 0
-0.009581 -0.002115 0
-0.007658 -0.001980 0
-0.005874 -0.001796 0
-0.004270 -0.001568 0
-0.002883 -0.001304 0
-0.001739 -0.001014 0
-0.000855 -0.000711 0
-0.000237 -0.000411 0
0.000126 -0.000135 0
0.000264 0.000089 0
0.000228 0.000221 0
0.000101 0.000211 0
0.000000 -0.000000 0
0.000000 -0.000001 0
-0.000058 0.000016 0
-0.000349 0.000386 0
-0.000944 0.000921 0
-0.001870 0.001504 0
-0.003122 0.002069 0
-0.004678 0.002578 0
-0.006502 0.003014 0
-0.008552 0.003371 0
-0.010784 0.003649 0
-0.013154 0.003851 0
-0.015619 0.003983 0
-0.018140 0.004049 0
-0.020677 0.004054 0
-0.023193 0.004000 0
-0.025654 0.003891 0
-0.028024 0.003728 0
-0.030270 0.003511 0
-0.032360 0.003240 0
-0.034260 0.002917 0
-0.035939 0.002543 0
-0.037366 0.002118 0
-0.038512 0.001647 0
-0.039352 0.001133 0
-0.039863 0.000583 0
-0.040025 0.000004 0
-0.039827 -0.000594 0
-0.039262 -0.001199 0
-0.038330 -0.001800 0
-0.037038 -0.002381 0
-0.035405 -0.002929 0
-0.033454 -0.003429 0
-0.031219 -0.003865 0
-0.028743 -0.004223 0
-0.026075 -0.004492 0
-0.023270 -0.004661 0
-0.020389 -0.004723 0
-0.017497 -0.004673 0
-0.014658 -0.004510 0
-0.011938 -0.004239 0
-0.009398 -0.003867 0
-0.007093 -0.003405 0
-0.005073 -0.002870 0
-0.003373 -0.002282 0
-0.002018 -0.001669 0
-0.001014 -0.001061 0
-0.000350 -0.000500 0
0.000008 -0.000037 0
0.000120 0.000261 0
0.000075 0.000310 0
0.000000 0.000000 0
0.000000 -0.000000 0
-0.000154 0.000268 0
-0.000673 0.000963 0
-0.001595 0.001857 0
-0.002924 0.002806 0
-0.004646 0.003719 0
-0.006728 0.004543 0
-0.009125 0.005251 0
-0.011789 0.005833 0
-0.014668 0.006288 0
-0.017708 0.006619 0
-0.020860 0.006833 0
-0.024073 0.006937 0
-0.027299 0.006937 0
-0.030494 0.006838 0
-0.033613 0.006643 0
-0.036612 0.006356 0
-0.039450 0.005977 0
-0.042085 0.005507 0
-0.044477 0.004949 0
-0.046585 0.004303 0
-0.048374 0.003575 0
-0.049807 0.002769 0
-0.050853 0.001893 0
-0.051485 0.000959 0
-0.051682 -0.000021 0
-0.051428 -0.001031 0
-0.050715 -0.002052 0
-0.049546 -0.003062 0
-0.047930 -0.004040 0
-0.045889 -0.004960 0
-0.043452 -0.005799 0
-0.040662 -0.006531 0
-0.037569 -0.007136 0
-0.034232 -0.007592 0
-0.030718 -0.007883 0
-0.027103 -0.007998 0
-0.023461 -0.007928 0
-0.019874 -0.007674 0
-0.016419 -0.007241 0
-0.013172 -0.006640 0
-0.010199 -0.005893 0
-0.007561 -0.005024 0
-0.005302 -0.004070 0
-0.003453 -0.003071 0
-0.002027 -0.002079 0
-0.001012 -0.001157 0
-0.000377 -0.000381 0
-0.000061 0.000154 0
0.000025 0.000331 0
0.000000 0.000000 0
0.000000 -0.000000 0
-0.000253 0.000690 0
-0.001015 0.001828 0
-0.002281 0.003172 0
-0.004033 0.004555 0
-0.006238 0.005872 0
-0.008849 0.007057 0
-0.011814 0.008076 0
-0.015075 0.008914 0
-0.018574 0.009568 0
-0.022251 0.010043 0
-0.026047 0.010347 0
-0.029906 0.010488 0
-0.033773 0.010475 0
-0.037594 0.010314 0
-0.041319 0.010009 0
-0.044896 0.009565 0
-0.048276 0.008984 0
-0.051410 0.008267 0
-0.054252 0.007417 0
-0.056756 0.006440 0
-0.058877 0.005340 0
-0.060576 0.004126 0
-0.061818 0.002811 0
-0.062569 0.001412 0
-0.062807 -0.000054 0
-0.062515 -0.001560 0
-0.061683 -0.003081 0
-0.060314 -0.004585 0
-0.058420 -0.006039 0
-0.056025 -0.007407 0
-0.053163 -0.008655 0
-0.049881 -0.009748 0
-0.046237 -0.010654 0
-0.042298 -0.011342 0
-0.038142 -0.011790 0
-0.033851 -0.011980 0
-0.029516 -0.011901 0
-0.025227 -0.011552 0
-0.021074 -0.010942 0
-0.017144 -0.010087 0
-0.013517 -0.009016 0
-0.010261 -0.007767 0
-0.007432 -0.006390 0
-0.005068 -0.004944 0
-0.003188 -0.003502 0
-0.001786 -0.002150 0
-0.000835 -0.000989 0
-0.000279 -0.000140 0
-0.000037 0.000249 0
0.000000 0.000000 0
0.000000 0.000000 0
-0.000350 0.001283 0
-0.001356 0.002992 0
-0.002973 0.004876 0
-0.005154 0.006762 0
-0.007844 0.008533 0
-0.010984 0.010119 0
-0.014509 0.011478 0
-0.018355 0.012594 0
-0.022453 0.013464 0
-0.026739 0.014092 0
-0.031148 0.014488 0
-0.035617 0.014662 0
-0.040086 0.014625 0
-0.044494 0.014384 0
-0.048785 0.013945 0
-0.052902 0.013313 0
-0.056789 0.012491 0
-0.060391 0.011483 0
-0.063656 0.010294 0
-0.066533 0.008928 0
-0.068974 0.007396 0
-0.070932 0.005709 0
-0.072369 0.003886 0
-0.073249 0.001949 0
-0.073546 -0.000076 0
-0.073240 -0.002155 0
-0.072322 -0.004252 0
-0.070793 -0.006325 0
-0.068666 -0.008329 0
-0.065965 -0.010218 0
-0.062730 -0.011943 0
-0.059009 -0.013458 0
-0.054866 -0.014719 0
-0.050376 -0.015687 0
-0.045622 -0.016330 0
-0.040698 -0.016623 0
-0.035702 -0.016553 0
-0.030735 -0.016116 0
-0.025900 -0.015323 0
-0.021295 -0.014198 0
-0.017011 -0.012776 0
-0.013127 -0.011109 0
-0.009710 -0.009262 0
-0.006806 -0.007315 0
-0.004444 -0.005361 0
-0.002627 -0.003510 0
-0.001332 -0.001889 0
-0.000514 -0.000644 0
-0.000101 0.000052 0
0.000000 0.000000 0
0.000000 0.000000 0
-0.000444 0.002046 0
-0.001689 0.004451 0
-0.003653 0.006969 0
-0.006259 0.009426 0
-0.009432 0.011701 0
-0.013094 0.013722 0
-0.017170 0.015447 0
-0.021586 0.016858 0
-0.026266 0.017953 0
-0.031139 0.018738 0
-0.036135 0.019225 0
-0.041186 0.019426 0
-0.046226 0.019352 0
-0.051192 0.019013 0
-0.056020 0.018417 0
-0.060649 0.017568 0
-0.065018 0.016473 0
-0.069069 0.015134 0
-0.072743 0.013560 0
-0.075985 0.011757 0
-0.078741 0.009739 0
-0.080964 0.007522 0
-0.082608 0.005129 0
-0.083636 0.002589 0
-0.084017 -0.000063 0
-0.083730 -0.002784 0
-0.082763 -0.005528 0
-0.081116 -0.008241 0
-0.078801 -0.010866 0
-0.075842 -0.013343 0
-0.072280 -0.015612 0
-0.068167 -0.017612 0
-0.063568 -0.019287 0
-0.058564 -0.020586 0
-0.053246 -0.021468 0
-0.047712 -0.021900 0
-0.042072 -0.021864 0
-0.036437 -0.021354 0
-0.030920 -0.020382 0
-0.025632 -0.018977 0
-0.020675 -0.017184 0
-0.016142 -0.015068 0
-0.012111 -0.012710 0
-0.008641 -0.010209 0
-0.005770 -0.007682 0
-0.003510 -0.005262 0
-0.001852 -0.003101 0
-0.000757 -0.001371 0
-0.000166 -0.000265 0
0.000000 0.000000 0
0.000000 0.000000 0
-0.000534 0.002973 0
-0.002010 0.006200 0
-0.004311 0.009446 0
-0.007334 0.012540 0
-0.010979 0.015368 0
-0.015153 0.017858 0
-0.019767 0.019970 0
-0.024737 0.021690 0
-0.029981 0.023017 0
-0.035421 0.023960 0
-0.040981 0.024535 0
-0.046591 0.024754 0
-0.052180 0.024631 0
-0.057680 0.024177 0
-0.063024 0.023402 0
-0.068147 0.022311 0
-0.072984 0.020911 0
-0.077473 0.019208 0
-0.081550 0.017209 0
-0.085158 0.014926 0
-0.088239 0.012375 0
-0.090739 0.009576 0
-0.092612 0.006559 0
-0.093815 0.003358 0
-0.094314 0.000018 0
-0.094085 -0.003410 0
-0.093112 -0.006867 0
-0.091393 -0.010288 0
-0.088937 -0.013603 0
-0.085768 -0.016738 0
-0.081925 -0.019618 0
-0.077461 -0.022169 0
-0.072444 -0.024321 0
-0.066957 -0.026010 0
-0.061095 -0.027182 0
-0.054967 -0.027797 0
-0.048688 -0.027828 0
-0.042381 -0.027268 0
-0.036171 -0.026129 0
-0.030180 -0.024443 0
-0.024525 -0.022265 0
-0.019314 -0.019672 0
-0.014637 -0.016763 0
-0.010568 -0.013656 0
-0.007157 -0.010492 0
-0.004430 -0.007428 0
-0.002388 -0.004642 0
-0.001004 -0.002330 0
-0.000231 -0.000705 0
0.000000 0.000000 0
0.000000 0.000000 0
-0.000620 0.004056 0
-0.002316 0.008228 0
-0.004943 0.012293 0
-0.008368 0.016093 0
-0.012471 0.019521 0
-0.017142 0.022511 0
-0.022278 0.025031 0
-0.027785 0.027072 0
-0.033574 0.028636 0
-0.039560 0.029739 0
-0.045666 0.030395 0
-0.051814 0.030624 0
-0.057932 0.030441 0
-0.063948 0.029857 0
-0.069792 0.028884 0
-0.075397 0.027529 0
-0.080695 0.025799 0
-0.085618 0.023701 0
-0.090103 0.021245 0
-0.094085 0.018445 0
-0.097505 0.015320 0
-0.100307 0.011895 0
-0.102437 0.008204 0
-0.103850 0.004291 0
-0.104508 0.000207 0
-0.104381 -0.003987 0
-0.103451 -0.008220 0
-0.101710 -0.012417 0
-0.099165 -0.016491 0
-0.095835 -0.020355 0
-0.091757 -0.023919 0
-0.086983 -0.027093 0
-0.081583 -0.029791 0
-0.075639 -0.031935 0
-0.069253 -0.033458 0
-0.062537 -0.034308 0
-0.055618 -0.034450 0
-0.048627 -0.033872 0
-0.041702 -0.032584 0
-0.034980 -0.030622 0
-0.028593 -0.028050 0
-0.022665 -0.024956 0
-0.017304 -0.021456 0
-0.012597 -0.017689 0
-0.008612 -0.013820 0
-0.005390 -0.010031 0
-0.002942 -0.006527 0
-0.001257 -0.003528 0
-0.000296 -0.001270 0
0.000000 0.000000 0
0.000000 -0.000000 0
-0.000701 0.005289 0
-0.002607 0.010523 0
-0.005544 0.015497 0
-0.009355 0.020068 0
-0.013898 0.024142 0
-0.019046 0.027665 0
-0.024684 0.030613 0
-0.030708 0.032985 0
-0.037022 0.034792 0
-0.043535 0.036053 0
-0.050166 0.036788 0
-0.056833 0.037019 0
-0.063463 0.036764 0
-0.069980 0.036038 0
-0.076314 0.034851 0
-0.082393 0.033214 0
-0.088147 0.031132 0
-0.093508 0.028616 0
-0.098408 0.025677 0
-0.102781 0.022329 0
-0.106562 0.018596 0
-0.109692 0.014507 0
-0.112115 0.010102 0
-0.113780 0.005429 0
-0.114643 0.000550 0
-0.114671 -0.004466 0
-0.113837 -0.009538 0
-0.112130 -0.014574 0
-0.109550 -0.019478 0
-0.106113 -0.024146 0
-0.101850 -0.028470 0
-0.096810 -0.032344 0
-0.091061 -0.035666 0
-0.084688 -0.038340 0
-0.077793 -0.040284 0
-0.070496 -0.041432 0
-0.062929 -0.041739 0
-0.055237 -0.041184 0
-0.047570 -0.039776 0
-0.040082 -0.037551 0
-0.032922 -0.034579 0
-0.026232 -0.030962 0
-0.020139 -0.026831 0
-0.014751 -0.022347 0
-0.010152 -0.017699 0
-0.006399 -0.013098 0
-0.003522 -0.008774 0
-0.001519 -0.004976 0
-0.000362 -0.001962 0
0.000000 0.000000 0
0.000000 -0.000000 0
-0.000777 0.006663 0
-0.002881 0.013071 0
-0.006112 0.019041 0
-0.010288 0.024447 0
-0.015249 0.029212 0
-0.020853 0.033298 0
-0.026971 0.036694 0
-0.033489 0.039409 0
-0.040305 0.041463 0
-0.047323 0.042882 0
-0.054458 0.043693 0
-0.061626 0.043921 0
-0.068751 0.043587 0
-0.075756 0.042708 0
-0.082569 0.041296 0
-0.089116 0.039362 0
-0.095328 0.036914 0
-0.101132 0.033962 0
-0.106459 0.030518 0
-0.111241 0.026599 0
-0.115410 0.022231 0
-0.118902 0.017448 0
-0.121657 0.012292 0
-0.123619 0.006819 0
-0.124739 0.001098 0
-0.124977 -0.004793 0
-0.124300 -0.010761 0
-0.122688 -0.016703 0
-0.120135 -0.022508 0
-0.116648 -0.028056 0
-0.112254 -0.033222 0
-0.106997 -0.037882 0
-0.100940 -0.041913 0
-0.094166 -0.045203 0
-0.086782 -0.047650 0
-0.078909 -0.049171 0
-0.070689 -0.049709 0
-0.062277 -0.049231 0
-0.053838 -0.047739 0
-0.045543 -0.045271 0
-0.037562 -0.041900 0
-0.030058 -0.037739 0
-0.023180 -0.032937 0
-0.017058 -0.027676 0
-0.011798 -0.022171 0
-0.007476 -0.016661 0
-0.004137 -0.011408 0
-0.001795 -0.006688 0
-0.000431 -0.002788 0
0.000000 -0.000000 0
0.000000 -0.000000 0
-0.000847 0.008170 0
-0.003137 0.015858 0
-0.006643 0.022905 0
-0.011163 0.029206 0
-0.016518 0.034706 0
-0.022551 0.039386 0
-0.029122 0.043249 0
-0.036109 0.046319 0
-0.043402 0.048626 0
-0.050901 0.050206 0
-0.058518 0.051091 0
-0.066167 0.051312 0
-0.073769 0.050894 0
-0.081248 0.049856 0
-0.088530 0.048212 0
-0.095542 0.045973 0
-0.102211 0.043148 0
-0.108465 0.039748 0
-0.114233 0.035785 0
-0.119444 0.031280 0
-0.124028 0.026257 0
-0.127917 0.020754 0
-0.131047 0.014819 0
-0.133356 0.008512 0
-0.134789 0.001908 0
-0.135297 -0.004906 0
-0.134840 -0.011827 0
-0.133389 -0.018740 0
-0.130930 -0.025518 0
-0.127459 -0.032026 0
-0.122996 -0.038121 0
-0.117576 -0.043659 0
-0.111257 -0.048496 0
-0.104120 -0.052498 0
-0.096270 -0.055542 0
-0.087832 -0.057525 0
-0.078955 -0.058371 0
-0.069805 -0.058035 0
-0.060564 -0.056509 0
-0.051421 -0.053827 0
-0.042568 -0.050065 0
-0.034192 -0.045344 0
-0.026469 -0.039831 0
-0.019554 -0.033730 0
-0.013577 -0.027282 0
-0.008638 -0.020759 0
-0.004799 -0.014455 0
-0.002091 -0.008682 0
-0.000505 -0.003757 0
0.000000 -0.000000 0
0.000000 0.000000 0
-0.000913 0.009800 0
-0.003374 0.018867 0
-0.007135 0.027067 0
-0.011974 0.034322 0
-0.017696 0.040599 0
-0.024129 0.045901 0
-0.031124 0.050252 0
-0.038550 0.053689 0
-0.046292 0.056256 0
-0.054246 0.057999 0
-0.062320 0.058959 0
-0.070427 0.059173 0
-0.078487 0.058669 0
-0.086425 0.057469 0
-0.094164 0.055590 0
-0.101633 0.053043 0
-0.108759 0.049837 0
-0.115469 0.045984 0
-0.121690 0.041497 0
-0.127350 0.036394 0
-0.132376 0.030705 0
-0.136698 0.024467 0
-0.140245 0.017730 0
-0.142952 0.010561 0
-0.144754 0.003039 0
-0.145595 -0.004742 0
-0.145427 -0.012668 0
-0.144209 -0.020614 0
-0.141916 -0.028438 0
-0.138534 -0.035989 0
-0.134070 -0.043105 0
-0.128552 -0.049621 0
-0.122028 -0.055369 0
-0.114573 -0.060190 0
-0.106290 -0.063938 0
-0.097306 -0.066486 0
-0.087775 -0.067735 0
-0.077876 -0.067621 0
-0.067805 -0.066123 0
-0.057772 -0.063267 0
-0.047993 -0.059129 0
-0.038685 -0.053838 0
-0.030051 -0.047575 0
-0.022276 -0.040568 0
-0.015520 -0.033088 0
-0.009907 -0.025439 0
-0.005523 -0.017954 0
-0.002414 -0.010982 0
-0.000585 -0.004879 0
0.000000 -0.000000 0
0.000000 0.000000 0
-0.000972 0.011544 0
-0.003590 0.022081 0
-0.007584 0.031505 0
-0.012715 0.039766 0
-0.018773 0.046861 0
-0.025575 0.052814 0
-0.032962 0.057671 0
-0.040795 0.061487 0
-0.048954 0.064322 0
-0.057332 0.066233 0
-0.065834 0.067272 0
-0.074374 0.067480 0
-0.082870 0.066892 0
-0.091246 0.065533 0
-0.099429 0.063420 0
-0.107345 0.060567 0
-0.114924 0.056983 0
-0.122091 0.052679 0
-0.128775 0.047667 0
-0.134900 0.041966 0
-0.140394 0.035605 0
-0.145181 0.028623 0
-0.149187 0.021073 0
-0.152339 0.013021 0
-0.154568 0.004552 0
-0.155807 -0.004233 0
-0.155998 -0.013213 0
-0.155088 -0.022251 0
-0.153039 -0.031193 0
-0.149825 -0.039871 0
-0.145440 -0.048103 0
-0.139897 -0.055702 0
-0.133235 -0.062475 0
-0.125521 -0.068236 0
-0.116850 -0.072809 0
-0.107351 -0.076039 0
-0.097181 -0.077801 0
-0.086529 -0.078006 0
-0.075606 -0.076614 0
-0.064645 -0.073638 0
-0.053890 -0.069151 0
-0.043585 -0.063287 0
-0.033970 -0.056239 0
-0.025263 -0.048261 0
-0.017656 -0.039652 0
-0.011305 -0.030756 0
-0.006321 -0.021948 0
-0.002772 -0.013619 0
-0.000674 -0.006171 0
0.000000 -0.000000 0
0.000000 0.000000 0
-0.001026 0.013390 0
-0.003784 0.025479 0
-0.007987 0.036192 0
-0.013381 0.045511 0
-0.019743 0.053459 0
-0.026878 0.060090 0
-0.034620 0.065471 0
-0.042824 0.069681 0
-0.051364 0.072793 0
-0.060132 0.074879 0
-0.069030 0.076000 0
-0.077972 0.076208 0
-0.086876 0.075541 0
-0.095668 0.074028 0
-0.104274 0.071689 0
-0.112623 0.068538 0
-0.120645 0.064583 0
-0.128266 0.059835 0
-0.135416 0.054306 0
-0.142018 0.048014 0
-0.147998 0.040985 0
-0.153278 0.033260 0
-0.157779 0.024889 0
-0.161423 0.015942 0
-0.164133 0.006507 0
-0.165833 -0.003312 0
-0.166453 -0.013387 0
-0.165929 -0.023572 0
-0.164207 -0.033701 0
-0.161248 -0.043588 0
-0.157028 -0.053034 0
-0.151547 -0.061825 0
-0.144828 -0.069745 0
-0.136927 -0.076575 0
-0.127930 -0.082108 0
-0.117962 -0.086155 0
-0.107181 -0.088557 0
-0.095785 -0.089196 0
-0.084001 -0.088007 0
-0.072082 -0.084983 0
-0.060302 -0.080189 0
-0.048939 -0.073758 0
-0.038269 -0.065898 0
-0.028552 -0.056882 0
-0.020017 -0.047046 0
-0.012855 -0.036774 0
-0.007209 -0.026488 0
-0.003171 -0.016629 0
-0.000774 -0.007651 0
0.000000 -0.000000 0
0.000000 0.000000 0
-0.001072 0.015328 0
-0.003953 0.029042 0
-0.008340 0.041102 0
-0.013965 0.051522 0
-0.020595 0.060358 0
-0.028025 0.067691 0
-0.036083 0.073616 0
-0.044618 0.078231 0
-0.053500 0.081631 0
-0.062619 0.083900 0
-0.071876 0.085112 0
-0.081184 0.085326 0
-0.090464 0.084588 0
-0.099641 0.082931 0
-0.108644 0.080376 0
-0.117404 0.076938 0
-0.125852 0.072627 0
-0.133917 0.067450 0
-0.141528 0.061419 0
-0.148611 0.054548 0
-0.155087 0.046865 0
-0.160880 0.038404 0
-0.165905 0.029218 0
-0.170080 0.019374 0
-0.173319 0.008961 0
-0.175539 -0.001913 0
-0.176657 -0.013117 0
-0.176597 -0.024496 0
-0.175289 -0.035874 0
-0.172677 -0.047050 0
-0.168719 -0.057805 0
-0.163397 -0.067902 0
-0.156716 -0.077095 0
-0.148717 -0.085134 0
-0.139473 -0.091774 0
-0.129101 -0.096788 0
-0.117758 -0.099977 0
-0.105645 -0.101186 0
-0.093003 -0.100317 0
-0.080109 -0.097337 0
-0.067263 -0.092295 0
-0.054784 -0.085319 0
-0.042988 -0.076626 0
-0.032178 -0.066513 0
-0.022631 -0.055349 0
-0.014579 -0.043564 0
-0.008201 -0.031632 0
-0.003618 -0.020054 0
-0.000887 -0.009342 0
0.000000 -0.000000 0
0.000000 0.000000 0
-0.001112 0.017344 0
-0.004097 0.032747 0
-0.008640 0.046204 0
-0.014462 0.057765 0
-0.021321 0.067519 0
-0.029006 0.075578 0
-0.037336 0.082064 0
-0.046158 0.087098 0
-0.055338 0.090794 0
-0.064764 0.093255 0
-0.074337 0.094566 0
-0.083971 0.094796 0
-0.093586 0.093998 0
-0.103112 0.092208 0
-0.112478 0.089453 0
-0.121619 0.085746 0
-0.130467 0.081096 0
-0.138956 0.075511 0
-0.147013 0.068999 0
-0.154568 0.061573 0
-0.161542 0.053254 0
-0.167856 0.044077 0
-0.173425 0.034089 0
-0.178159 0.023357 0
-0.181969 0.011966 0
-0.184761 0.000026 0
-0.186442 -0.012329 0
-0.186920 -0.024940 0
-0.186113 -0.037621 0
-0.183943 -0.050158 0
-0.180351 -0.062314 0
-0.175296 -0.073828 0
-0.168764 -0.084425 0
-0.160774 -0.093818 0
-0.151383 -0.101724 0
-0.140694 -0.107870 0
-0.128859 -0.112013 0
-0.116078 -0.113951 0
-0.102604 -0.113543 0
-0.088732 -0.110723 0
-0.074795 -0.105514 0
-0.061149 -0.098034 0
-0.048157 -0.088503 0
-0.036175 -0.077238 0
-0.025528 -0.064646 0
-0.016498 -0.051204 0
-0.009311 -0.037448 0
-0.004122 -0.023943 0
-0.001015 -0.011269 0
0.000000 -0.000000 0
0.000000 0.000000 0
-0.001143 0.019424 0
-0.004212 0.036570 0
-0.008882 0.051467 0
-0.014866 0.064203 0
-0.021914 0.074902 0
-0.029809 0.083706 0
-0.038366 0.090768 0
-0.047426 0.096233 0
-0.056856 0.100237 0
-0.066541 0.102899 0
-0.076381 0.104318 0
-0.086292 0.104575 0
-0.096197 0.103729 0
-0.106025 0.101822 0