# vtk DataFile Version 2.0
generated by CFD-lab course output (written by Tobias Neckel) 
ASCII

DATASET STRUCTURED_GRID
DIMENSIONS  51 51 1 
POINTS 2601 float

0.000000 0.000000 0
0.020000 0.000000 0
0.040000 0.000000 0
0.060000 0.000000 0
0.080000 0.000000 0
0.100000 0.000000 0
0.120000 0.000000 0
0.140000 0.000000 0
0.160000 0.000000 0
0.180000 0.000000 0
0.200000 0.000000 0
0.220000 0.000000 0
0.240000 0.000000 0
0.260000 0.000000 0
0.280000 0.000000 0
0.300000 0.000000 0
0.320000 0.000000 0
0.340000 0.000000 0
0.360000 0.000000 0
0.380000 0.000000 0
0.400000 0.000000 0
0.420000 0.000000 0
0.440000 0.000000 0
0.460000 0.000000 0
0.480000 0.000000 0
0.500000 0.000000 0
0.520000 0.000000 0
0.540000 0.000000 0
0.560000 0.000000 0
0.580000 0.000000 0
0.600000 0.000000 0
0.620000 0.000000 0
0.640000 0.000000 0
0.660000 0.000000 0
0.680000 0.000000 0
0.700000 0.000000 0
0.720000 0.000000 0
0.740000 0.000000 0
0.760000 0.000000 0
0.780000 0.000000 0
0.800000 0.000000 0
0.820000 0.000000 0
0.840000 0.000000 0
0.860000 0.000000 0
0.880000 0.000000 0
0.900000 0.000000 0
0.920000 0.000000 0
0.940000 0.000000 0
0.960000 0.000000 0
0.980000 0.000000 0
1.000000 0.000000 0
0.000000 0.020000 0
0.020000 0.020000 0
0.040000 0.020000 0
0.060000 0.020000 0
0.080000 0.020000 0
0.100000 0.020000 0
0.120000 0.020000 0
0.140000 0.020000 0
0.160000 0.020000 0
0.180000 0.020000 0
0.200000 0.020000 0
0.220000 0.020000 0
0.240000 0.020000 0
0.260000 0.020000 0
0.280000 0.020000 0
0.300000 0.020000 0
0.320000 0.020000 0
0.340000 0.020000 0
0.360000 0.020000 0
0.380000 0.020000 0
0.400000 0.020000 0
0.420000 0.020000 0
0.440000 0.020000 0
0.460000 0.020000 0
0.480000 0.020000 0
0.500000 0.020000 0
0.520000 0.020000 0
0.540000 0.020000 0
0.560000 0.020000 0
0.580000 0.020000 0
0.600000 0.020000 0
0.620000 0.020000 0
0.640000 0.020000 0
0.660000 0.020000 0
0.680000 0.020000 0
0.700000 0.020000 0
0.720000 0.020000 0
0.740000 0.020000 0
0.760000 0.020000 0
0.780000 0.020000 0
0.800000 0.020000 0
0.820000 0.020000 0
0.840000 0.020000 0
0.860000 0.020000 0
0.880000 0.020000 0
0.900000 0.020000 0
0.920000 0.020000 0
0.940000 0.020000 0
0.960000 0.020000 0
0.980000 0.020000 0
1.000000 0.020000 0
0.000000 0.040000 0
0.020000 0.040000 0
0.040000 0.040000 0
0.060000 0.040000 0
0.080000 0.040000 0
0.100000 0.040000 0
0.120000 0.040000 0
0.140000 0.040000 0
0.160000 0.040000 0
0.180000 0.040000 0
0.200000 0.040000 0
0.220000 0.040000 0
0.240000 0.040000 0
0.260000 0.040000 0
0.280000 0.040000 0
0.300000 0.040000 0
0.320000 0.040000 0
0.340000 0.040000 0
0.360000 0.040000 0
0.380000 0.040000 0
0.400000 0.040000 0
0.420000 0.040000 0
0.440000 0.040000 0
0.460000 0.040000 0
0.480000 0.040000 0
0.500000 0.040000 0
0.520000 0.040000 0
0.540000 0.040000 0
0.560000 0.040000 0
0.580000 0.040000 0
0.600000 0.040000 0
0.620000 0.040000 0
0.640000 0.040000 0
0.660000 0.040000 0
0.680000 0.040000 0
0.700000 0.040000 0
0.720000 0.040000 0
0.740000 0.040000 0
0.760000 0.040000 0
0.780000 0.040000 0
0.800000 0.040000 0
0.820000 0.040000 0
0.840000 0.040000 0
0.860000 0.040000 0
0.880000 0.040000 0
0.900000 0.040000 0
0.920000 0.040000 0
0.940000 0.040000 0
0.960000 0.040000 0
0.980000 0.040000 0
1.000000 0.040000 0
0.000000 0.060000 0
0.020000 0.060000 0
0.040000 0.060000 0
0.060000 0.060000 0
0.080000 0.060000 0
0.100000 0.060000 0
0.120000 0.060000 0
0.140000 0.060000 0
0.160000 0.060000 0
0.180000 0.060000 0
0.200000 0.060000 0
0.220000 0.060000 0
0.240000 0.060000 0
0.260000 0.060000 0
0.280000 0.060000 0
0.300000 0.060000 0
0.320000 0.060000 0
0.340000 0.060000 0
0.360000 0.060000 0
0.380000 0.060000 0
0.400000 0.060000 0
0.420000 0.060000 0
0.440000 0.060000 0
0.460000 0.060000 0
0.480000 0.060000 0
0.500000 0.060000 0
0.520000 0.060000 0
0.540000 0.060000 0
0.560000 0.060000 0
0.580000 0.060000 0
0.600000 0.060000 0
0.620000 0.060000 0
0.640000 0.060000 0
0.660000 0.060000 0
0.680000 0.060000 0
0.700000 0.060000 0
0.720000 0.060000 0
0.740000 0.060000 0
0.760000 0.060000 0
0.780000 0.060000 0
0.800000 0.060000 0
0.820000 0.060000 0
0.840000 0.060000 0
0.860000 0.060000 0
0.880000 0.060000 0
0.900000 0.060000 0
0.920000 0.060000 0
0.940000 0.060000 0
0.960000 0.060000 0
0.980000 0.060000 0
1.000000 0.060000 0
0.000000 0.080000 0
0.020000 0.080000 0
0.040000 0.080000 0
0.060000 0.080000 0
0.080000 0.080000 0
0.100000 0.080000 0
0.120000 0.080000 0
0.140000 0.080000 0
0.160000 0.080000 0
0.180000 0.080000 0
0.200000 0.080000 0
0.220000 0.080000 0
0.240000 0.080000 0
0.260000 0.080000 0
0.280000 0.080000 0
0.300000 0.080000 0
0.320000 0.080000 0
0.340000 0.080000 0
0.360000 0.080000 0
0.380000 0.080000 0
0.400000 0.080000 0
0.420000 0.080000 0
0.440000 0.080000 0
0.460000 0.080000 0
0.480000 0.080000 0
0.500000 0.080000 0
0.520000 0.080000 0
0.540000 0.080000 0
0.560000 0.080000 0
0.580000 0.080000 0
0.600000 0.080000 0
0.620000 0.080000 0
0.640000 0.080000 0
0.660000 0.080000 0
0.680000 0.080000 0
0.700000 0.080000 0
0.720000 0.080000 0
0.740000 0.080000 0
0.760000 0.080000 0
0.780000 0.080000 0
0.800000 0.080000 0
0.820000 0.080000 0
0.840000 0.080000 0
0.860000 0.080000 0
0.880000 0.080000 0
0.900000 0.080000 0
0.920000 0.080000 0
0.940000 0.080000 0
0.960000 0.080000 0
0.980000 0.080000 0
1.000000 0.080000 0
0.000000 0.100000 0
0.020000 0.100000 0
0.040000 0.100000 0
0.060000 0.100000 0
0.080000 0.100000 0
0.100000 0.100000 0
0.120000 0.100000 0
0.140000 0.100000 0
0.160000 0.100000 0
0.180000 0.100000 0
0.200000 0.100000 0
0.220000 0.100000 0
0.240000 0.100000 0
0.260000 0.100000 0
0.280000 0.100000 0
0.300000 0.100000 0
0.320000 0.100000 0
0.340000 0.100000 0
0.360000 0.100000 0
0.380000 0.100000 0
0.400000 0.100000 0
0.420000 0.100000 0
0.440000 0.100000 0
0.460000 0.100000 0
0.480000 0.100000 0
0.500000 0.100000 0
0.520000 0.100000 0
0.540000 0.100000 0
0.560000 0.100000 0
0.580000 0.100000 0
0.600000 0.100000 0
0.620000 0.100000 0
0.640000 0.100000 0
0.660000 0.100000 0
0.680000 0.100000 0
0.700000 0.100000 0
0.720000 0.100000 0
0.740000 0.100000 0
0.760000 0.100000 0
0.780000 0.100000 0
0.800000 0.100000 0
0.820000 0.100000 0
0.840000 0.100000 0
0.860000 0.100000 0
0.880000 0.100000 0
0.900000 0.100000 0
0.920000 0.100000 0
0.940000 0.100000 0
0.960000 0.100000 0
0.980000 0.100000 0
1.000000 0.100000 0
0.000000 0.120000 0
0.020000 0.120000 0
0.040000 0.120000 0
0.060000 0.120000 0
0.080000 0.120000 0
0.100000 0.120000 0
0.120000 0.120000 0
0.140000 0.120000 0
0.160000 0.120000 0
0.180000 0.120000 0
0.200000 0.120000 0
0.220000 0.120000 0
0.240000 0.120000 0
0.260000 0.120000 0
0.280000 0.120000 0
0.300000 0.120000 0
0.320000 0.120000 0
0.340000 0.120000 0
0.360000 0.120000 0
0.380000 0.120000 0
0.400000 0.120000 0
0.420000 0.120000 0
0.440000 0.120000 0
0.460000 0.120000 0
0.480000 0.120000 0
0.500000 0.120000 0
0.520000 0.120000 0
0.540000 0.120000 0
0.560000 0.120000 0
0.580000 0.120000 0
0.600000 0.120000 0
0.620000 0.120000 0
0.640000 0.120000 0
0.660000 0.120000 0
0.680000 0.120000 0
0.700000 0.120000 0
0.720000 0.120000 0
0.740000 0.120000 0
0.760000 0.120000 0
0.780000 0.120000 0
0.800000 0.120000 0
0.820000 0.120000 0
0.840000 0.120000 0
0.860000 0.120000 0
0.880000 0.120000 0
0.900000 0.120000 0
0.920000 0.120000 0
0.940000 0.120000 0
0.960000 0.120000 0
0.980000 0.120000 0
1.000000 0.120000 0
0.000000 0.140000 0
0.020000 0.140000 0
0.040000 0.140000 0
0.060000 0.140000 0
0.080000 0.140000 0
0.100000 0.140000 0
0.120000 0.140000 0
0.140000 0.140000 0
0.160000 0.140000 0
0.180000 0.140000 0
0.200000 0.140000 0
0.220000 0.140000 0
0.240000 0.140000 0
0.260000 0.140000 0
0.280000 0.140000 0
0.300000 0.140000 0
0.320000 0.140000 0
0.340000 0.140000 0
0.360000 0.140000 0
0.380000 0.140000 0
0.400000 0.140000 0
0.420000 0.140000 0
0.440000 0.140000 0
0.460000 0.140000 0
0.480000 0.140000 0
0.500000 0.140000 0
0.520000 0.140000 0
0.540000 0.140000 0
0.560000 0.140000 0
0.580000 0.140000 0
0.600000 0.140000 0
0.620000 0.140000 0
0.640000 0.140000 0
0.660000 0.140000 0
0.680000 0.140000 0
0.700000 0.140000 0
0.720000 0.140000 0
0.740000 0.140000 0
0.760000 0.140000 0
0.780000 0.140000 0
0.800000 0.140000 0
0.820000 0.140000 0
0.840000 0.140000 0
0.860000 0.140000 0
0.880000 0.140000 0
0.900000 0.140000 0
0.920000 0.140000 0
0.940000 0.140000 0
0.960000 0.140000 0
0.980000 0.140000 0
1.000000 0.140000 0
0.000000 0.160000 0
0.020000 0.160000 0
0.040000 0.160000 0
0.060000 0.160000 0
0.080000 0.160000 0
0.100000 0.160000 0
0.120000 0.160000 0
0.140000 0.160000 0
0.160000 0.160000 0
0.180000 0.160000 0
0.200000 0.160000 0
0.220000 0.160000 0
0.240000 0.160000 0
0.260000 0.160000 0
0.280000 0.160000 0
0.300000 0.160000 0
0.320000 0.160000 0
0.340000 0.160000 0
0.360000 0.160000 0
0.380000 0.160000 0
0.400000 0.160000 0
0.420000 0.160000 0
0.440000 0.160000 0
0.460000 0.160000 0
0.480000 0.160000 0
0.500000 0.160000 0
0.520000 0.160000 0
0.540000 0.160000 0
0.560000 0.160000 0
0.580000 0.160000 0
0.600000 0.160000 0
0.620000 0.160000 0
0.640000 0.160000 0
0.660000 0.160000 0
0.680000 0.160000 0
0.700000 0.160000 0
0.720000 0.160000 0
0.740000 0.160000 0
0.760000 0.160000 0
0.780000 0.160000 0
0.800000 0.160000 0
0.820000 0.160000 0
0.840000 0.160000 0
0.860000 0.160000 0
0.880000 0.160000 0
0.900000 0.160000 0
0.920000 0.160000 0
0.940000 0.160000 0
0.960000 0.160000 0
0.980000 0.160000 0
1.000000 0.160000 0
0.000000 0.180000 0
0.020000 0.180000 0
0.040000 0.180000 0
0.060000 0.180000 0
0.080000 0.180000 0
0.100000 0.180000 0
0.120000 0.180000 0
0.140000 0.180000 0
0.160000 0.180000 0
0.180000 0.180000 0
0.200000 0.180000 0
0.220000 0.180000 0
0.240000 0.180000 0
0.260000 0.180000 0
0.280000 0.180000 0
0.300000 0.180000 0
0.320000 0.180000 0
0.340000 0.180000 0
0.360000 0.180000 0
0.380000 0.180000 0
0.400000 0.180000 0
0.420000 0.180000 0
0.440000 0.180000 0
0.460000 0.180000 0
0.480000 0.180000 0
0.500000 0.180000 0
0.520000 0.180000 0
0.540000 0.180000 0
0.560000 0.180000 0
0.580000 0.180000 0
0.600000 0.180000 0
0.620000 0.180000 0
[...]
POINT_DATA 2601 

VECTORS velocity float
0.000000 0.000000 0
0.000000 0.000000 0
-0.000000 0.000000 0
-0.000001 0.000000 0
-0.000000 0.000000 0
0.000000 0.000000 0
0.000000 0.000000 0
0.000000 0.000000 0
0.000000 0.000000 0
0.000000 0.000000 0
-0.000000 0.000000 0
-0.000000 0.000000 0
-0.000000 0.000000 0
-0.000000 0.000000 0
-0.000000 0.000000 0
-0.000000 0.000000 0
-0.000000 0.000000 0
-0.000000 0.000000 0
0.000000 0.000000 0
0.000000 0.000000 0
0.000000 0.000000 0
0.000000 0.000000 0
0.000000 0.000000 0
0.000000 0.000000 0
-0.000000 0.000000 0
-0.000000 0.000000 0
-0.000000 0.000000 0
-0.000000 0.000000 0
-0.000000 0.000000 0
0.000000 0.000000 0
0.000000 0.000000 0
0.000000 0.000000 0
0.000000 0.000000 0
-0.000000 0.000000 0
-0.000000 0.000000 0
-0.000000 0.000000 0
-0.000000 0.000000 0
-0.000000 0.000000 0
-0.000000 0.000000 0
-0.000000 0.000000 0
0.000000 0.000000 0
0.000000 0.000000 0
0.000000 0.000000 0
0.000000 0.000000 0
0.000000 0.000000 0
0.000000 0.000000 0
0.000000 0.000000 0
0.000000 0.000000 0
0.000000 0.000000 0
0.000000 0.000000 0
0.000000 0.000000 0
0.000000 0.000000 0
0.000061 -0.000059 0
0.000082 -0.000023 0
-0.000014 0.000054 0
-0.000256 0.000143 0
-0.000645 0.000228 0
-0.001172 0.000302 0
-0.001817 0.000363 0
-0.002559 0.000412 0
-0.003380 0.000450 0
-0.004258 0.000476 0
-0.005177 0.000494 0
-0.006119 0.000503 0
-0.007071 0.000505 0
-0.008018 0.000499 0
-0.008947 0.000487 0
-0.009845 0.000468 0
-0.010700 0.000443 0
-0.011499 0.000411 0
-0.012229 0.000372 0
-0.012879 0.000327 0
-0.013435 0.000275 0
-0.013887 0.000216 0
-0.014223 0.000152 0
-0.014433 0.000082 0
-0.014509 0.000008 0
-0.014445 -0.000068 0
-0.014237 -0.000147 0
-0.013884 -0.000225 0
-0.013389 -0.000302 0
-0.012757 -0.000374 0
-0.011999 -0.000440 0
-0.011128 -0.000498 0
-0.010162 -0.000545 0
-0.009119 -0.000580 0
-0.008025 -0.000601 0
-0.006904 -0.000608 0
-0.005783 -0.000599 0
-0.004691 -0.000575 0
-0.003653 -0.000536 0
-0.002698 -0.000482 0
-0.001847 -0.000416 0
-0.001121 -0.000340 0
-0.000537 -0.000255 0
-0.000104 -0.000167 0
0.000175 -0.000079 0
0.000306 0.000002 0
0.000307 0.000067 0
0.000213 0.000100 0
0.000082 0.000082 0
0.000000 -0.000000 0
0.000000 -0.000000 0
0.000024 -0.000082 0
-0.000075 0.000074 0
-0.000386 0.000337 0
-0.000945 0.000632 0
-0.001755 0.000917 0
-0.002800 0.001172 0
-0.004050 0.001388 0
-0.005474 0.001563 0
-0.007036 0.001699 0
-0.008702 0.001797 0
-0.010441 0.001861 0
-0.012223 0.001894 0
-0.014019 0.001898 0
-0.015805 0.001876 0
-0.017553 0.001827 0
-0.019240 0.001753 0
-0.020842 0.001654 0
-0.022336 0.001529 0
-0.023697 0.001380 0
-0.024903 0.001206 0
-0.025932 0.001008 0
-0.026761 0.000788 0
-0.027372 0.000546 0
-0.027748 0.000286 0
-0.027873 0.000012 0
-0.027738 -0.000272 0
-0.027337 -0.000561 0
-0.026670 -0.000848 0
-0.025742 -0.001127 0
-0.024565 -0.001389 0
-0.023157 -0.001629 0
-0.021543 -0.001838 0
-0.019755 -0.002009 0
-0.017828 -0.002137 0
-0.015804 -0.002215 0
-0.013730 -0.002242 0
-0.011653 -0.002213 0
-0.009622 -0.002130 0
-0.007685 -0.001993 0
-0.005890 -0.001807 0
-0.004277 -0.001576 0
-0.002882 -0.001310 0
-0.001733 -0.001017 0
-0.000847 -0.000712 0
-0.000228 -0.000410 0
0.000135 -0.000132 0
0.000270 0.000093 0
0.000232 0.000225 0
0.000103 0.000213 0
0.000000 0.000000 0
0.000000 -0.000001 0
-0.000057 0.000015 0
-0.000350 0.000386 0
-0.000949 0.000925 0
-0.001881 0.001513 0
-0.003142 0.002083 0
-0.004710 0.002597 0
-0.006548 0.003037 0
-0.008615 0.003398 0
-0.010865 0.003678 0
-0.013255 0.003882 0
-0.015741 0.004015 0
-0.018282 0.004082 0
-0.020840 0.004086 0
-0.023377 0.004033 0
-0.025857 0.003923 0
-0.028247 0.003758 0
-0.030511 0.003539 0
-0.032617 0.003266 0
-0.034532 0.002940 0
-0.036223 0.002561 0
-0.037659 0.002133 0
-0.038813 0.001657 0
-0.039657 0.001138 0
-0.040168 0.000583 0
-0.040329 -0.000001 0
-0.040125 -0.000604 0
-0.039551 -0.001215 0
-0.038607 -0.001820 0
-0.037301 -0.002407 0
-0.035651 -0.002959 0
-0.033680 -0.003462 0
-0.031425 -0.003900 0
-0.028926 -0.004261 0
-0.026235 -0.004530 0
-0.023406 -0.004699 0
-0.020502 -0.004760 0
-0.017587 -0.004708 0
-0.014728 -0.004542 0
-0.011988 -0.004267 0
-0.009432 -0.003891 0
-0.007113 -0.003424 0
-0.005082 -0.002884 0
-0.003374 -0.002291 0
-0.002013 -0.001672 0
-0.001006 -0.001060 0
-0.000342 -0.000496 0
0.000015 -0.000031 0
0.000124 0.000268 0
0.000077 0.000314 0
0.000000 0.000000 0
0.000000 -0.000000 0
-0.000154 0.000268 0
-0.000677 0.000966 0
-0.001605 0.001868 0
-0.002945 0.002825 0
-0.004681 0.003746 0
-0.006779 0.004578 0
-0.009196 0.005293 0
-0.011883 0.005880 0
-0.014786 0.006339 0
-0.017852 0.006673 0
-0.021030 0.006889 0
-0.024269 0.006993 0
-0.027523 0.006993 0
-0.030744 0.006893 0
-0.033888 0.006697 0
-0.036912 0.006407 0
-0.039772 0.006024 0
-0.042428 0.005550 0
-0.044837 0.004986 0
-0.046961 0.004334 0
-0.048761 0.003599 0
-0.050202 0.002785 0
-0.051253 0.001901 0
-0.051886 0.000958 0
-0.052079 -0.000031 0
-0.051817 -0.001050 0
-0.051094 -0.002079 0
-0.049909 -0.003098 0
-0.048275 -0.004083 0
-0.046212 -0.005010 0
-0.043752 -0.005854 0
-0.040935 -0.006592 0
-0.037814 -0.007199 0
-0.034447 -0.007657 0
-0.030905 -0.007948 0
-0.027260 -0.008061 0
-0.023590 -0.007988 0
-0.019977 -0.007729 0
-0.016497 -0.007289 0
-0.013228 -0.006682 0
-0.010237 -0.005926 0
-0.007583 -0.005050 0
-0.005313 -0.004086 0
-0.003456 -0.003079 0
-0.002024 -0.002080 0
-0.001007 -0.001153 0
-0.000372 -0.000374 0
-0.000057 0.000163 0
0.000026 0.000337 0
0.000000 -0.000000 0
0.000000 -0.000000 0
-0.000255 0.000692 0
-0.001022 0.001839 0
-0.002299 0.003193 0
-0.004065 0.004589 0
-0.006288 0.005917 0
-0.008921 0.007113 0
-0.011912 0.008141 0
-0.015201 0.008987 0
-0.018730 0.009647 0
-0.022439 0.010126 0
-0.026267 0.010432 0
-0.030158 0.010575 0
-0.034058 0.010561 0
-0.037911 0.010398 0
-0.041666 0.010090 0
-0.045271 0.009642 0
-0.048678 0.009054 0
-0.051836 0.008330 0
-0.054699 0.007472 0
-0.057219 0.006485 0
-0.059354 0.005374 0
-0.061062 0.004149 0
-0.062308 0.002822 0
-0.063060 0.001409 0
-0.063294 -0.000069 0
-0.062992 -0.001589 0
-0.062147 -0.003123 0
-0.060761 -0.004639 0
-0.058845 -0.006104 0
-0.056424 -0.007482 0
-0.053533 -0.008739 0
-0.050220 -0.009838 0
-0.046543 -0.010748 0
-0.042570 -0.011439 0
-0.038379 -0.011887 0
-0.034055 -0.012074 0
-0.029686 -0.011991 0
-0.025365 -0.011635 0
-0.021182 -0.011016 0
-0.017226 -0.010151 0
-0.013575 -0.009069 0
-0.010300 -0.007808 0
-0.007456 -0.006418 0
-0.005080 -0.004961 0
-0.003192 -0.003509 0
-0.001786 -0.002148 0
-0.000833 -0.000981 0
-0.000277 -0.000130 0
-0.000036 0.000257 0
0.000000 -0.000000 0
0.000000 0.000000 0
-0.000353 0.001290 0
-0.001367 0.003011 0
-0.002998 0.004911 0
-0.005198 0.006814 0
-0.007911 0.008601 0
-0.011078 0.010201 0
-0.014635 0.011573 0
-0.018514 0.012699 0
-0.022648 0.013576 0
-0.026971 0.014209 0
-0.031418 0.014608 0
-0.035925 0.014784 0
-0.040431 0.014746 0
-0.044876 0.014501 0
-0.049202 0.014058 0
-0.053351 0.013419 0
-0.057268 0.012589 0
-0.060897 0.011570 0
-0.064185 0.010369 0
-0.067081 0.008989 0
-0.069536 0.007442 0
-0.071505 0.005739 0
-0.072946 0.003899 0
-0.073827 0.001944 0
-0.074118 -0.000099 0
-0.073802 -0.002197 0
-0.072868 -0.004311 0
-0.071319 -0.006401 0
-0.069167 -0.008420 0
-0.066438 -0.010322 0
-0.063170 -0.012058 0
-0.059414 -0.013582 0
-0.055234 -0.014849 0
-0.050705 -0.015821 0
-0.045912 -0.016464 0
-0.040949 -0.016754 0
-0.035914 -0.016678 0
-0.030911 -0.016232 0
-0.026042 -0.015428 0
-0.021405 -0.014289 0
-0.017093 -0.012852 0
-0.013185 -0.011169 0
-0.009749 -0.009306 0
-0.006830 -0.007343 0
-0.004457 -0.005375 0
-0.002632 -0.003512 0
-0.001333 -0.001883 0
-0.000514 -0.000634 0
-0.000101 0.000061 0
0.000000 -0.000000 0
0.000000 0.000000 0
-0.000448 0.002060 0
-0.001704 0.004484 0
-0.003685 0.007023 0
-0.006315 0.009501 0
-0.009516 0.011797 0
-0.013211 0.013836 0
-0.017324 0.015577 0
-0.021778 0.017000 0
-0.026499 0.018104 0
-0.031415 0.018896 0
-0.036453 0.019386 0
-0.041547 0.019588 0
-0.046630 0.019512 0
-0.051636 0.019169 0
-0.056503 0.018565 0
-0.061168 0.017707 0
-0.065570 0.016600 0
-0.069650 0.015248 0
-0.073350 0.013657 0
-0.076612 0.011836 0
-0.079384 0.009798 0
-0.081617 0.007559 0
-0.083266 0.005144 0
-0.084294 0.002581 0
-0.084669 -0.000094 0
-0.084370 -0.002839 0
-0.083386 -0.005606 0
-0.081717 -0.008340 0
-0.079374 -0.010985 0
-0.076385 -0.013479 0
-0.072787 -0.015763 0
-0.068635 -0.017774 0
-0.063996 -0.019457 0
-0.058950 -0.020761 0
-0.053588 -0.021643 0
-0.048011 -0.022072 0
-0.042328 -0.022028 0
-0.036651 -0.021508 0
-0.031096 -0.020522 0
-0.025771 -0.019100 0
-0.020782 -0.017288 0
-0.016222 -0.015152 0
-0.012167 -0.012774 0
-0.008678 -0.010253 0
-0.005792 -0.007707 0
-0.003522 -0.005271 0
-0.001857 -0.003099 0
-0.000758 -0.001363 0
-0.000166 -0.000257 0
0.000000 0.000000 0
0.000000 0.000000 0
-0.000539 0.002995 0
-0.002028 0.006248 0
-0.004351 0.009522 0
-0.007401 0.012644 0
-0.011080 0.015497 0
-0.015292 0.018009 0
-0.019948 0.020140 0
-0.024962 0.021874 0
-0.030252 0.023212 0
-0.035739 0.024163 0
-0.041347 0.024741 0
-0.047004 0.024960 0
-0.052639 0.024834 0
-0.058183 0.024374 0
-0.063569 0.023589 0
-0.068731 0.022486 0
-0.073604 0.021071 0
-0.078124 0.019350 0
-0.082229 0.017330 0
-0.085859 0.015024 0
-0.088956 0.012447 0
-0.091467 0.009622 0
-0.093345 0.006576 0
-0.094548 0.003346 0
-0.095040 -0.000023 0
-0.094798 -0.003479 0
-0.093807 -0.006965 0
-0.092064 -0.010412 0
-0.089579 -0.013752 0
-0.086377 -0.016909 0
-0.082496 -0.019807 0
-0.077991 -0.022373 0
-0.072930 -0.024535 0
-0.067397 -0.026229 0
-0.061489 -0.027403 0
-0.055313 -0.028014 0
-0.048988 -0.028037 0
-0.042635 -0.027464 0
-0.036381 -0.026308 0
-0.030350 -0.024602 0
-0.024659 -0.022402 0
-0.019415 -0.019784 0
-0.014711 -0.016850 0
-0.010618 -0.013719 0
-0.007189 -0.010531 0
-0.004448 -0.007447 0
-0.002397 -0.004646 0
-0.001008 -0.002324 0
-0.000232 -0.000698 0
0.000000 0.000000 0
0.000000 0.000000 0
-0.000626 0.004088 0
-0.002338 0.008295 0
-0.004990 0.012396 0
-0.008447 0.016230 0
-0.012588 0.019688 0
-0.017301 0.022705 0
-0.022484 0.025247 0
-0.028040 0.027304 0
-0.033879 0.028881 0
-0.039918 0.029991 0
-0.046075 0.030652 0
-0.052274 0.030880 0
-0.058442 0.030691 0
-0.064505 0.030099 0
-0.070395 0.029113 0
-0.076042 0.027742 0
-0.081377 0.025993 0
-0.086333 0.023873 0
-0.090847 0.021391 0
-0.094852 0.018563 0
-0.098290 0.015406 0
-0.101102 0.011949 0
-0.103238 0.008224 0
-0.104650 0.004276 0
-0.105301 0.000156 0
-0.105162 -0.004073 0
-0.104212 -0.008340 0
-0.102447 -0.012568 0
-0.099871 -0.016672 0
-0.096507 -0.020562 0
-0.092389 -0.024148 0
-0.087573 -0.027340 0
-0.082126 -0.030051 0
-0.076133 -0.032202 0
-0.069697 -0.033727 0
-0.062931 -0.034573 0
-0.055961 -0.034707 0
-0.048921 -0.034114 0
-0.041948 -0.032807 0
-0.035181 -0.030822 0
-0.028754 -0.028223 0
-0.022789 -0.025101 0
-0.017395 -0.021571 0
-0.012661 -0.017774 0
-0.008654 -0.013877 0
-0.005414 -0.010064 0
-0.002955 -0.006540 0
-0.001262 -0.003528 0
-0.000297 -0.001264 0
0.000000 0.000000 0
0.000000 0.000000 0
-0.000707 0.005333 0
-0.002632 0.010612 0
-0.005597 0.015631 0
-0.009444 0.020242 0
-0.014029 0.024352 0
-0.019224 0.027905 0
-0.024913 0.030879 0
-0.030991 0.033270 0
-0.037359 0.035090 0
-0.043928 0.036359 0
-0.050614 0.037098 0
-0.057336 0.037327 0
-0.064018 0.037065 0
-0.070586 0.036328 0
-0.076967 0.035126 0
-0.083090 0.033468 0
-0.088884 0.031363 0
-0.094279 0.028819 0
-0.099209 0.025849 0
-0.103606 0.022467 0
-0.107405 0.018697 0
-0.110548 0.014570 0
-0.112976 0.010124 0
-0.114640 0.005410 0
-0.115496 0.000489 0
-0.115511 -0.004568 0
-0.114658 -0.009680 0
-0.112926 -0.014754 0
-0.110315 -0.019692 0
-0.106842 -0.024391 0
-0.102539 -0.028741 0
-0.097455 -0.032637 0
-0.091658 -0.035974 0
-0.085234 -0.038658 0
-0.078287 -0.040605 0
-0.070936 -0.041750 0
-0.063315 -0.042047 0
-0.055570 -0.041477 0
-0.047852 -0.040047 0
-0.040315 -0.037796 0
-0.033110 -0.034794 0
-0.026378 -0.031143 0
-0.020249 -0.026978 0
-0.014829 -0.022459 0
-0.010204 -0.017778 0
-0.006431 -0.013147 0
-0.003539 -0.008798 0
-0.001526 -0.004982 0
-0.000364 -0.001960 0
0.000000 0.000000 0
0.000000 -0.000000 0
-0.000784 0.006720 0
-0.002909 0.013185 0
-0.006171 0.019208 0
-0.010386 0.024661 0
-0.015393 0.029468 0
-0.021048 0.033589 0
-0.027220 0.037014 0
-0.033795 0.039750 0
-0.040670 0.041819 0
-0.047747 0.043246 0
-0.054940 0.044059 0
-0.062166 0.044284 0
-0.069346 0.043941 0
-0.076403 0.043048 0
-0.083265 0.041617 0
-0.089858 0.039659 0
-0.096110 0.037183 0
-0.101950 0.034198 0
-0.107308 0.030717 0
-0.112115 0.026759 0
-0.116302 0.022348 0
-0.119807 0.017519 0
-0.122568 0.012317 0
-0.124530 0.006796 0
-0.125644 0.001027 0
-0.125869 -0.004911 0
-0.125172 -0.010925 0
-0.123536 -0.016911 0
-0.120952 -0.022756 0
-0.117429 -0.028339 0
-0.112995 -0.033536 0
-0.107692 -0.038221 0
-0.101586 -0.042272 0
-0.094761 -0.045573 0
-0.087322 -0.048025 0
-0.079393 -0.049545 0
-0.071116 -0.050072 0
-0.062648 -0.049577 0
-0.054154 -0.048062 0
-0.045807 -0.045565 0
-0.037777 -0.042160 0
-0.030227 -0.037962 0
-0.023308 -0.033120 0
-0.017151 -0.027819 0
-0.011861 -0.022275 0
-0.007515 -0.016729 0
-0.004158 -0.011445 0
-0.001803 -0.006703 0
-0.000433 -0.002790 0
0.000000 -0.000000 0
0.000000 -0.000000 0
-0.000855 0.008241 0
-0.003167 0.015999 0
-0.006707 0.023108 0
-0.011269 0.029465 0
-0.016673 0.035013 0
-0.022760 0.039732 0
-0.029389 0.043627 0
-0.036435 0.046720 0
-0.043790 0.049042 0
-0.051351 0.050630 0
-0.059028 0.051516 0
-0.066737 0.051732 0
-0.074396 0.051303 0
-0.081929 0.050247 0
-0.089261 0.048580 0
-0.096319 0.046313 0
-0.103030 0.043455 0
-0.109321 0.040017 0
-0.115120 0.036013 0
-0.120356 0.031461 0
-0.124960 0.026390 0
-0.128862 0.020836 0
-0.131998 0.014847 0
-0.134308 0.008486 0
-0.135735 0.001827 0
-0.136231 -0.005040 0
-0.135755 -0.012013 0
-0.134281 -0.018975 0
-0.131791 -0.025798 0
-0.128285 -0.032347 0
-0.123782 -0.038478 0
-0.118316 -0.044045 0
-0.111948 -0.048905 0
-0.104759 -0.052922 0
-0.096853 -0.055973 0
-0.088357 -0.057955 0
-0.079422 -0.058792 0
-0.070214 -0.058439 0
-0.060915 -0.056888 0
-0.051715 -0.054174 0
-0.042809 -0.050374 0
-0.034384 -0.045612 0
-0.026616 -0.040054 0
-0.019661 -0.033907 0
-0.013651 -0.027414 0
-0.008684 -0.020850 0
-0.004824 -0.014510 0
-0.002102 -0.008707 0
-0.000507 -0.003763 0
0.000000 -0.000000 0
0.000000 -0.000000 0
-0.000921 0.009887 0
-0.003406 0.019036 0
-0.007203 0.027309 0
-0.012086 0.034628 0
-0.017859 0.040959 0
-0.024348 0.046305 0
-0.031404 0.050690 0
-0.038892 0.054151 0
-0.046698 0.056734 0
-0.054715 0.058485 0
-0.062851 0.059445 0
-0.071019 0.059651 0
-0.079138 0.059133 0
-0.087130 0.057913 0
-0.094921 0.056007 0
-0.102437 0.053428 0
-0.109605 0.050184 0
-0.116351 0.046288 0
-0.122604 0.041753 0
-0.128290 0.036599 0
-0.133336 0.030854 0
-0.137671 0.024558 0
-0.141226 0.017762 0
-0.143933 0.010533 0
-0.145731 0.002949 0
-0.146561 -0.004890 0
-0.146375 -0.012875 0
-0.145135 -0.020875 0
-0.142812 -0.028751 0
-0.139396 -0.036348 0
-0.134893 -0.043505 0
-0.129330 -0.050054 0
-0.122758 -0.055829 0
-0.115251 -0.060669 0
-0.106911 -0.064427 0
-0.097869 -0.066975 0
-0.088279 -0.068216 0
-0.078319 -0.068085 0
-0.068187 -0.066561 0
-0.058095 -0.063671 0
-0.048260 -0.059492 0
-0.038898 -0.054155 0
-0.030215 -0.047842 0
-0.022397 -0.040784 0
-0.015604 -0.033252 0
-0.009960 -0.025555 0
-0.005552 -0.018027 0
-0.002427 -0.011020 0
-0.000588 -0.004892 0
0.000000 -0.000000 0
0.000000 -0.000000 0
-0.000982 0.011648 0
-0.003624 0.022280 0
-0.007654 0.031787 0
-0.012831 0.040121 0
-0.018942 0.047276 0
-0.025802 0.053277 0
-0.033251 0.058171 0
-0.041148 0.062013 0
-0.049371 0.064865 0
-0.057814 0.066783 0
-0.066379 0.067820 0
-0.074980 0.068019 0
-0.083535 0.067414 0
-0.091966 0.066030 0
-0.100200 0.063887 0
-0.108164 0.060997 0
-0.115784 0.057370 0
-0.122989 0.053017 0
-0.129704 0.047951 0
-0.135855 0.042193 0
-0.141369 0.035772 0
-0.146170 0.028726 0
-0.150184 0.021109 0
-0.153338 0.012990 0
-0.155563 0.004455 0
-0.156792 -0.004395 0
-0.156967 -0.013439 0
-0.156036 -0.022538 0
-0.153960 -0.031537 0
-0.150714 -0.040266 0
-0.146291 -0.048544 0
-0.140705 -0.056181 0
-0.133996 -0.062985 0
-0.126230 -0.068768 0
-0.117505 -0.073355 0
-0.107947 -0.076588 0
-0.097717 -0.078343 0
-0.087003 -0.078531 0
-0.076018 -0.077112 0
-0.064996 -0.074101 0
-0.054180 -0.069571 0
-0.043819 -0.063657 0
-0.034152 -0.056555 0
-0.025398 -0.048518 0
-0.017750 -0.039852 0
-0.011365 -0.030901 0
-0.006355 -0.022042 0
-0.002786 -0.013671 0
-0.000678 -0.006190 0
0.000000 -0.000000 0
0.000000 -0.000000 0
-0.001035 0.013511 0
-0.003818 0.025709 0
-0.008059 0.036517 0
-0.013499 0.045916 0
-0.019915 0.053930 0
-0.027109 0.060613 0
-0.034913 0.066035 0
-0.043182 0.070271 0
-0.051787 0.073400 0
-0.060620 0.075493 0
-0.069581 0.076611 0
-0.078584 0.076807 0
-0.087546 0.076120 0
-0.096393 0.074579 0
-0.105050 0.072205 0
-0.113445 0.069011 0
-0.121508 0.065009 0
-0.129167 0.060207 0
-0.136347 0.054619 0
-0.142975 0.048264 0
-0.148975 0.041169 0
-0.154269 0.033373 0
-0.158778 0.024931 0
-0.162425 0.015912 0
-0.165132 0.006404 0
-0.166824 -0.003486 0
-0.167430 -0.013631 0
-0.166886 -0.023882 0
-0.165140 -0.034073 0
-0.162151 -0.044017 0
-0.157896 -0.053514 0
-0.152375 -0.062349 0
-0.145611 -0.070304 0
-0.137660 -0.077161 0
-0.128610 -0.082710 0
-0.118585 -0.086763 0
-0.107744 -0.089160 0
-0.096286 -0.089784 0
-0.084439 -0.088568 0
-0.072457 -0.085508 0
-0.060614 -0.080668 0
-0.049192 -0.074184 0
-0.038467 -0.066264 0
-0.028700 -0.057185 0
-0.020121 -0.047285 0
-0.012922 -0.036951 0
-0.007247 -0.026606 0
-0.003187 -0.016697 0
-0.000778 -0.007678 0
0.000000 -0.000000 0
0.000000 -0.000000 0
-0.001082 0.015466 0
-0.003988 0.029303 0
-0.008412 0.041469 0
-0.014084 0.051977 0
-0.020767 0.060886 0
-0.028257 0.068276 0
-0.036377 0.074243 0
-0.044975 0.078887 0
-0.053922 0.082303 0
-0.063105 0.084577 0
-0.072424 0.085784 0
-0.081793 0.085984 0
-0.091130 0.085223 0
-0.100360 0.083534 0
-0.109413 0.080940 0
-0.118218 0.077456 0
-0.126707 0.073091 0
-0.134807 0.067856 0
-0.142448 0.061760 0
-0.149556 0.054821 0
-0.156052 0.047065 0
-0.161858 0.038529 0
-0.166893 0.029266 0
-0.171071 0.019344 0
-0.174309 0.008853 0
-0.176522 -0.002098 0
-0.177628 -0.013376 0
-0.177551 -0.024827 0
-0.176221 -0.036272 0
-0.173581 -0.047510 0
-0.169592 -0.058321 0
-0.164232 -0.068466 0
-0.157510 -0.077700 0
-0.149464 -0.085770 0
-0.140170 -0.092430 0
-0.129743 -0.097453 0
-0.118341 -0.100641 0
-0.106167 -0.101837 0
-0.093463 -0.100942 0
-0.080504 -0.097925 0
-0.067596 -0.092836 0
-0.055055 -0.085804 0
-0.043201 -0.077047 0
-0.032339 -0.066865 0
-0.022744 -0.055630 0
-0.014652 -0.043775 0
-0.008243 -0.031777 0
-0.003637 -0.020139 0
-0.000892 -0.009378 0
0.000000 -0.000000 0
0.000000 -0.000000 0
-0.001121 0.017499 0
-0.004131 0.033039 0
-0.008710 0.046613 0
-0.014579 0.058271 0
-0.021491 0.068103 0
-0.029234 0.076223 0
-0.037625 0.082753 0
-0.046509 0.087817 0
-0.055753 0.091530 0
-0.065241 0.093995 0
-0.074875 0.095299 0
-0.084567 0.095512 0
-0.094238 0.094687 0
-0.103815 0.092862 0
-0.113229 0.090063 0
-0.122413 0.086305 0
-0.131300 0.081598 0
-0.139822 0.075949 0
-0.147909 0.069368 0
-0.155487 0.061867 0
-0.162480 0.053471 0
-0.168808 0.044213 0
-0.174385 0.034143 0
-0.179123 0.023328 0
-0.182932 0.011854 0
-0.185719 -0.000167 0
-0.187389 -0.012602 0
-0.187854 -0.025290 0
-0.187027 -0.038042 0
-0.184834 -0.050646 0
-0.181213 -0.062863 0
-0.176125 -0.074430 0
-0.169556 -0.085072 0
-0.161523 -0.094501 0
-0.152086 -0.102432 0
-0.141345 -0.108591 0
-0.129455 -0.112736 0
-0.116615 -0.114663 0
-0.103079 -0.114231 0
-0.089145 -0.111375 0
-0.075144 -0.106117 0
-0.061436 -0.098579 0
-0.048384 -0.088980 0
-0.036346 -0.077642 0
-0.025650 -0.064972 0
-0.016578 -0.051452 0
-0.009356 -0.037621 0
-0.004142 -0.024047 0
-0.001020 -0.011315 0
0.000000 -0.000000 0
0.000000 0.000000 0
-0.001153 0.019597 0
-0.004245 0.036892 0
-0.008950 0.051917 0
-0.014979 0.064758 0
-0.022078 0.075540 0
-0.030029 0.084410 0
-0.038645 0.091519 0
-0.047766 0.097015 0
-0.057256 0.101035 0
-0.067001 0.103699 0
-0.076900 0.105110 0
-0.086866 0.105347 0
-0.096824 0.104471 0
-0.106701 0.102525 0